
                                 *****************
                                 * O   R   C   A *
                                 *****************

           --- An Ab Initio, DFT and Semiempirical electronic structure package ---

                  #######################################################
                  #                        -***-                        #
                  #  Department of molecular theory and spectroscopy    #
                  #              Directorship: Frank Neese              #
                  # Max Planck Institute for Chemical Energy Conversion #
                  #                  D-45470 Muelheim/Ruhr              #
                  #                       Germany                       #
                  #                                                     #
                  #                  All rights reserved                #
                  #                        -***-                        #
                  #######################################################


                         Program Version 4.0.0 -  RELEASE  -


 With contributions from (in alphabetic order):
   Daniel Aravena         : Magnetic Properties
   Michael Atanasov       : Ab Initio Ligand Field Theory
   Ute Becker             : Parallelization
   Martin Brehm           : Molecular dynamics
   Dmytro Bykov           : SCF Hessian
   Vijay G. Chilkuri      : MRCI spin determinant printing
   Dipayan Datta          : RHF DLPNO-CCSD density
   Achintya Kumar Dutta   : EOM-CC, STEOM-CC
   Dmitry Ganyushin       : Spin-Orbit,Spin-Spin,Magnetic field MRCI
   Yang Guo               : DLPNO-NEVPT2, CIM, IAO-localization
   Andreas Hansen         : Spin unrestricted coupled pair/coupled cluster methods
   Lee Huntington         : MR-EOM, pCC
   Robert Izsak           : Overlap fitted RIJCOSX, COSX-SCS-MP3, EOM
   Christian Kollmar      : KDIIS, OOCD, Brueckner-CCSD(T), CCSD density
   Simone Kossmann        : Meta GGA functionals, TD-DFT gradient, OOMP2, MP2 Hessian
   Martin Krupicka        : AUTO-CI
   Dagmar Lenk            : GEPOL surface
   Dimitrios Liakos       : Extrapolation schemes; parallel MDCI
   Dimitrios Manganas     : ROCIS; embedding schemes
   Dimitrios Pantazis     : SARC Basis sets
   Taras Petrenko         : DFT Hessian,TD-DFT gradient, ASA, ECA, R-Raman, ABS, FL, XAS/XES, NRVS
   Peter Pinski           : DLPNO-MP2
   Christoph Reimann      : Effective Core Potentials
   Marius Retegan         : Local ZFS, SOC
   Christoph Riplinger    : Optimizer, TS searches, QM/MM, DLPNO-CCSD(T), (RO)-DLPNO pert. Triples
   Tobias Risthaus        : Range-separated hybrids, TD-DFT gradient, RPA, STAB
   Michael Roemelt        : Restricted open shell CIS
   Masaaki Saitow         : Open-shell DLPNO
   Barbara Sandhoefer     : DKH picture change effects
   Kantharuban Sivalingam : CASSCF convergence, NEVPT2, FIC-MRCI
   Georgi Stoychev        : AutoAux
   Boris Wezisla          : Elementary symmetry handling
   Frank Wennmohs         : Technical directorship


 We gratefully acknowledge several colleagues who have allowed us to
 interface, adapt or use parts of their codes:
   Stefan Grimme, W. Hujo, H. Kruse,             : VdW corrections, initial TS optimization,
                  C. Bannwarth                     DFT functionals, gCP, sTDA/sTD-DF
   Ed Valeev                                     : LibInt (2-el integral package), F12 methods
   Garnet Chan, S. Sharma, J. Yang, R. Olivares  : DMRG
   Ulf Ekstrom                                   : XCFun DFT Library
   Mihaly Kallay                                 : mrcc  (arbitrary order and MRCC methods)
   Jiri Pittner, Ondrej Demel                    : Mk-CCSD
   Frank Weinhold                                : gennbo (NPA and NBO analysis)
   Christopher J. Cramer and Donald G. Truhlar   : smd solvation model


 Your calculation uses the libint2 library for the computation of 2-el integrals
 For citations please refer to: http://libint.valeyev.net

 This ORCA versions uses:
   CBLAS   interface :  Fast vector & matrix operations
   LAPACKE interface :  Fast linear algebra routines
   SCALAPACK package :  Parallel linear algebra routines


Your calculation utilizes the basis: def2-SVP
   F. Weigend and R. Ahlrichs, Phys. Chem. Chem. Phys. 7, 3297 (2005).

Your calculation utilizes the auxiliary basis: def2/J
   F. Weigend, Phys. Chem. Chem. Phys. 8, 1057 (2006).

================================================================================
                                        WARNINGS
                       Please study these warnings very carefully!
================================================================================

Warning: TCutStore was < 0. Adjusted to Thresh (uncritical)

WARNING: Geometry Optimization
  ===> : Switching off AutoStart
         For restart on a previous wavefunction, please use MOREAD

INFO   : the flag for use of LIBINT has been found!

================================================================================
                                       INPUT FILE
================================================================================
NAME = 1-ttt_opt.in
|  1> ! rks pbe def2-svp opt anfreq
|  2> 
|  3> * xyz 0 1
|  4> N                     0.0438   -1.92595   0.
|  5> C                    -0.79717  -0.74596   0.
|  6> H                     0.46104  -1.95739   0.90907
|  7> H                     0.46104  -1.95739  -0.90907
|  8> C                     0.05661   0.51399   0.
|  9> H                    -1.42307  -0.74417  -0.90115
| 10> H                    -1.42307  -0.74417   0.90115
| 11> O                     1.31175   0.4235    0.
| 12> O                    -0.5675    1.8006    0.
| 13> H                     0.10683   2.48386   0.
| 14> *
| 15> 
| 16>                          ****END OF INPUT****
================================================================================

                       *****************************
                       * Geometry Optimization Run *
                       *****************************

Geometry optimization settings:
Update method            Update   .... BFGS
Choice of coordinates    CoordSys .... Redundant Internals
Initial Hessian          InHess   .... Almoef's Model

Convergence Tolerances:
Energy Change            TolE     ....  5.0000e-06 Eh
Max. Gradient            TolMAXG  ....  3.0000e-04 Eh/bohr
RMS Gradient             TolRMSG  ....  1.0000e-04 Eh/bohr
Max. Displacement        TolMAXD  ....  4.0000e-03 bohr
RMS Displacement         TolRMSD  ....  2.0000e-03 bohr

------------------------------------------------------------------------------
                        ORCA OPTIMIZATION COORDINATE SETUP
------------------------------------------------------------------------------

The optimization will be done in new redundant internal coordinates
Making redundant internal coordinates   ...  (new redundants) done
Evaluating the initial hessian          ...  (Almloef) done
Evaluating the coordinates              ...  done
Calculating the B-matrix                .... done
Calculating the G-matrix                .... done
Diagonalizing the G-matrix              .... done
The first mode is                       ....   12
The number of degrees of freedom        ....   24

    -----------------------------------------------------------------
                    Redundant Internal Coordinates


    -----------------------------------------------------------------
         Definition                    Initial Value    Approx d2E/dq
    -----------------------------------------------------------------
      1. B(C   1,N   0)                  1.4490         0.450548   
      2. B(H   2,N   0)                  1.0007         0.447677   
      3. B(H   3,N   0)                  1.0007         0.447677   
      4. B(C   4,C   1)                  1.5220         0.384749   
      5. B(H   5,C   1)                  1.0972         0.350713   
      6. B(H   6,C   1)                  1.0972         0.350713   
      7. B(O   7,C   4)                  1.2584         0.907483   
      8. B(O   8,C   4)                  1.4300         0.483137   
      9. B(H   9,O   8)                  0.9600         0.519991   
     10. A(C   1,N   0,H   3)          105.5192         0.341808   
     11. A(H   2,N   0,H   3)          130.5691         0.306581   
     12. A(C   1,N   0,H   2)          105.5192         0.341808   
     13. A(C   4,C   1,H   5)          108.5818         0.324482   
     14. A(N   0,C   1,H   5)          109.4151         0.331040   
     15. A(N   0,C   1,H   6)          109.4151         0.331040   
     16. A(H   5,C   1,H   6)          110.4354         0.288441   
     17. A(C   4,C   1,H   6)          108.5818         0.324482   
     18. A(N   0,C   1,C   4)          110.4001         0.374780   
     19. A(O   7,C   4,O   8)          120.0008         0.438667   
     20. A(C   1,C   4,O   8)          120.0001         0.379333   
     21. A(C   1,C   4,O   7)          119.9991         0.423858   
     22. A(C   4,O   8,H   9)          109.4997         0.354690   
     23. D(H   6,C   1,N   0,H   2)    -48.9212         0.017317   
     24. D(H   5,C   1,N   0,H   3)     48.9212         0.017317   
     25. D(H   6,C   1,N   0,H   3)    170.0354         0.017317   
     26. D(H   5,C   1,N   0,H   2)   -170.0354         0.017317   
     27. D(C   4,C   1,N   0,H   2)     70.5217         0.017317   
     28. D(C   4,C   1,N   0,H   3)    -70.5217         0.017317   
     29. D(O   7,C   4,C   1,N   0)      0.0000         0.011030   
     30. D(O   8,C   4,C   1,H   6)    -60.0540         0.011030   
     31. D(O   8,C   4,C   1,H   5)     60.0540         0.011030   
     32. D(O   8,C   4,C   1,N   0)    180.0000         0.011030   
     33. D(O   7,C   4,C   1,H   6)    119.9460         0.011030   
     34. D(O   7,C   4,C   1,H   5)   -119.9460         0.011030   
     35. D(H   9,O   8,C   4,O   7)      0.0000         0.016749   
     36. D(H   9,O   8,C   4,C   1)    180.0000         0.016749   
    -----------------------------------------------------------------

Number of atoms                         .... 10
Number of degrees of freedom            .... 36

         *************************************************************
         *                GEOMETRY OPTIMIZATION CYCLE   1            *
         *************************************************************
---------------------------------
CARTESIAN COORDINATES (ANGSTROEM)
---------------------------------
  N      0.043800   -1.925950    0.000000
  C     -0.797170   -0.745960    0.000000
  H      0.461040   -1.957390    0.909070
  H      0.461040   -1.957390   -0.909070
  C      0.056610    0.513990    0.000000
  H     -1.423070   -0.744170   -0.901150
  H     -1.423070   -0.744170    0.901150
  O      1.311750    0.423500    0.000000
  O     -0.567500    1.800600    0.000000
  H      0.106830    2.483860    0.000000

----------------------------
CARTESIAN COORDINATES (A.U.)
----------------------------
  NO LB      ZA    FRAG     MASS         X           Y           Z
   0 N     7.0000    0    14.007    0.082770   -3.639518    0.000000
   1 C     6.0000    0    12.011   -1.506433   -1.409660    0.000000
   2 H     1.0000    0     1.008    0.871239   -3.698931    1.717893
   3 H     1.0000    0     1.008    0.871239   -3.698931   -1.717893
   4 C     6.0000    0    12.011    0.106977    0.971300    0.000000
   5 H     1.0000    0     1.008   -2.689213   -1.406277   -1.702927
   6 H     1.0000    0     1.008   -2.689213   -1.406277    1.702927
   7 O     8.0000    0    15.999    2.478848    0.800299    0.000000
   8 O     8.0000    0    15.999   -1.072420    3.402641    0.000000
   9 H     1.0000    0     1.008    0.201879    4.693815    0.000000

--------------------------------
INTERNAL COORDINATES (ANGSTROEM)
--------------------------------
 N      0   0   0     0.000000000000     0.00000000     0.00000000
 C      1   0   0     1.449002050033     0.00000000     0.00000000
 H      1   2   0     1.000742702247   105.51921749     0.00000000
 H      1   2   3     1.000742702247   105.51921749   218.95657183
 C      2   1   3     1.521977099335   110.40006620    70.52171409
 H      2   1   3     1.097189745030   109.41511246   189.96458712
 H      2   1   3     1.097189745030   109.41511246   311.07884106
 O      5   2   1     1.258397735098   119.99911177     0.00000000
 O      5   2   1     1.429992511938   120.00011266   180.00000000
 H      9   5   2     0.959981862589   109.49973670   180.00000085

---------------------------
INTERNAL COORDINATES (A.U.)
---------------------------
 N      0   0   0     0.000000000000     0.00000000     0.00000000
 C      1   0   0     2.738217042053     0.00000000     0.00000000
 H      1   2   0     1.891129637767   105.51921749     0.00000000
 H      1   2   3     1.891129637767   105.51921749   218.95657183
 C      2   1   3     2.876119899843   110.40006620    70.52171409
 H      2   1   3     2.073388135054   109.41511246   189.96458712
 H      2   1   3     2.073388135054   109.41511246   311.07884106
 O      5   2   1     2.378027086882   119.99911177     0.00000000
 O      5   2   1     2.702294221122   120.00011266   180.00000000
 H      9   5   2     1.814102813825   109.49973670   180.00000085

---------------------
BASIS SET INFORMATION
---------------------
There are 4 groups of distinct atoms

 Group   1 Type N   : 7s4p1d contracted to 3s2p1d pattern {511/31/1}
 Group   2 Type C   : 7s4p1d contracted to 3s2p1d pattern {511/31/1}
 Group   3 Type H   : 4s1p contracted to 2s1p pattern {31/1}
 Group   4 Type O   : 7s4p1d contracted to 3s2p1d pattern {511/31/1}

Atom   0N    basis set group =>   1
Atom   1C    basis set group =>   2
Atom   2H    basis set group =>   3
Atom   3H    basis set group =>   3
Atom   4C    basis set group =>   2
Atom   5H    basis set group =>   3
Atom   6H    basis set group =>   3
Atom   7O    basis set group =>   4
Atom   8O    basis set group =>   4
Atom   9H    basis set group =>   3
-------------------------------
AUXILIARY BASIS SET INFORMATION
-------------------------------
There are 4 groups of distinct atoms

 Group   1 Type N   : 12s5p4d2f1g contracted to 6s4p3d1f1g pattern {711111/2111/211/2/1}
 Group   2 Type C   : 12s5p4d2f1g contracted to 6s4p3d1f1g pattern {711111/2111/211/2/1}
 Group   3 Type H   : 5s2p1d contracted to 3s1p1d pattern {311/2/1}
 Group   4 Type O   : 12s5p4d2f1g contracted to 6s4p3d1f1g pattern {711111/2111/211/2/1}

Atom   0N    basis set group =>   1
Atom   1C    basis set group =>   2
Atom   2H    basis set group =>   3
Atom   3H    basis set group =>   3
Atom   4C    basis set group =>   2
Atom   5H    basis set group =>   3
Atom   6H    basis set group =>   3
Atom   7O    basis set group =>   4
Atom   8O    basis set group =>   4
Atom   9H    basis set group =>   3
-------------------------
ECP PARAMETER INFORMATION
-------------------------



------------------------------------------------------------------------------
                           ORCA GTO INTEGRAL CALCULATION
                           -- RI-GTO INTEGRALS CHOSEN --
------------------------------------------------------------------------------

                         BASIS SET STATISTICS AND STARTUP INFO

Gaussian basis set:
 # of primitive gaussian shells          ...   85
 # of primitive gaussian functions       ...  155
 # of contracted shells                  ...   45
 # of contracted basis functions         ...   95
 Highest angular momentum                ...    2
 Maximum contraction depth               ...    5
Auxiliary gaussian basis set:
 # of primitive gaussian shells          ...  160
 # of primitive gaussian functions       ...  430
 # of contracted shells                  ...  100
 # of contracted aux-basis functions     ...  300
 Highest angular momentum                ...    4
 Maximum contraction depth               ...    7
Ratio of auxiliary to basis functions    ...  3.16
Integral package used                  ... LIBINT
 One Electron integrals                  
   ECP integrals                         ... done
 Ordering auxiliary basis shells         ... done
 Integral threshhold             Thresh  ...  2.500e-11
 Primitive cut-off               TCut    ...  2.500e-12
 Pre-screening matrix                    ... done
 Shell pair data                         ... 
 Ordering of the shell pairs             ... done (   0.000 sec) 1019 of 1035 pairs
 Determination of significant pairs      ... done (   0.000 sec)
 Creation of shell pair data             ... done (   0.000 sec)
 Storage of shell pair data              ... done (   0.000 sec)
 Shell pair data done in (   0.001 sec)
 Computing two index integrals           ... done
 Cholesky decomposition of the V-matrix  ... done


Timings:
 Total evaluation time                   ...   0.245 sec (  0.004 min)
 One electron matrix time                ...   0.020 sec (  0.000 min) =  8.1%
 Schwartz matrix evaluation time         ...   0.117 sec (  0.002 min) = 47.7%
 Two index repulsion integral time       ...   0.003 sec (  0.000 min) =  1.3%
 Cholesky decomposition of V             ...   0.049 sec (  0.001 min) = 19.8%
 Three index repulsion integral time     ...   0.000 sec (  0.000 min) =  0.0%

-------------------------------------------------------------------------------
                                 ORCA SCF
-------------------------------------------------------------------------------

------------
SCF SETTINGS
------------
Hamiltonian:
 Density Functional     Method          .... DFT(GTOs)
 Exchange Functional    Exchange        .... PBE
   PBE kappa parameter   XKappa         ....  0.804000
   PBE mue parameter    XMuePBE         ....  0.219520
 Correlation Functional Correlation     .... PBE
   PBE beta parameter  CBetaPBE         ....  0.066725
 LDA part of GGA corr.  LDAOpt          .... PW91-LDA
 Gradients option       PostSCFGGA      .... off
   NL short-range parameter             ....  6.400000
 RI-approximation to the Coulomb term is turned on
   Number of auxiliary basis functions  .... 300


General Settings:
 Integral files         IntName         .... 1-ttt_opt
 Hartree-Fock type      HFTyp           .... RHF
 Total Charge           Charge          ....    0
 Multiplicity           Mult            ....    1
 Number of Electrons    NEL             ....   40
 Basis Dimension        Dim             ....   95
 Nuclear Repulsion      ENuc            ....    176.6834549602 Eh

Convergence Acceleration:
 DIIS                   CNVDIIS         .... on
   Start iteration      DIISMaxIt       ....    12
   Startup error        DIISStart       ....  0.200000
   # of expansion vecs  DIISMaxEq       ....     5
   Bias factor          DIISBfac        ....   1.050
   Max. coefficient     DIISMaxC        ....  10.000
 Newton-Raphson         CNVNR           .... off
 SOSCF                  CNVSOSCF        .... on
   Start iteration      SOSCFMaxIt      ....   150
   Startup grad/error   SOSCFStart      ....  0.003300
 Level Shifting         CNVShift        .... on
   Level shift para.    LevelShift      ....    0.2500
   Turn off err/grad.   ShiftErr        ....    0.0010
 Zerner damping         CNVZerner       .... off
 Static damping         CNVDamp         .... on
   Fraction old density DampFac         ....    0.7000
   Max. Damping (<1)    DampMax         ....    0.9800
   Min. Damping (>=0)   DampMin         ....    0.0000
   Turn off err/grad.   DampErr         ....    0.1000
 Fernandez-Rico         CNVRico         .... off

SCF Procedure:
 Maximum # iterations   MaxIter         ....   125
 SCF integral mode      SCFMode         .... Direct
   Integral package                     .... LIBINT
 Reset frequeny         DirectResetFreq ....    20
 Integral Threshold     Thresh          ....  2.500e-11 Eh
 Primitive CutOff       TCut            ....  2.500e-12 Eh

Convergence Tolerance:
 Convergence Check Mode ConvCheckMode   .... Total+1el-Energy
 Convergence forced     ConvForced      .... 0
 Energy Change          TolE            ....  1.000e-08 Eh
 1-El. energy change                    ....  1.000e-05 Eh
 Orbital Gradient       TolG            ....  1.000e-05
 Orbital Rotation angle TolX            ....  1.000e-05
 DIIS Error             TolErr          ....  5.000e-07


Diagonalization of the overlap matrix:
Smallest eigenvalue                        ... 2.454e-03
Time for diagonalization                   ...    0.109 sec
Threshold for overlap eigenvalues          ... 1.000e-08
Number of eigenvalues below threshold      ... 0
Time for construction of square roots      ...    0.013 sec
Total time needed                          ...    0.121 sec

-------------------
DFT GRID GENERATION
-------------------

General Integration Accuracy     IntAcc      ...  4.340
Radial Grid Type                 RadialGrid  ... Gauss-Chebyshev
Angular Grid (max. acc.)         AngularGrid ... Lebedev-110
Angular grid pruning method      GridPruning ... 3 (G Style)
Weight generation scheme         WeightScheme... Becke
Basis function cutoff            BFCut       ...    1.0000e-11
Integration weight cutoff        WCut        ...    1.0000e-14
Grids for H and He will be reduced by one unit

# of grid points (after initial pruning)     ...  12416 (   0.0 sec)
# of grid points (after weights+screening)   ...  11830 (   0.0 sec)
nearest neighbour list constructed           ...    0.0 sec
Grid point re-assignment to atoms done       ...    0.0 sec
Grid point division into batches done        ...    0.0 sec
Reduced shell lists constructed in    0.1 sec

Total number of grid points                  ...    11830
Total number of batches                      ...      189
Average number of points per batch           ...       62
Average number of grid points per atom       ...     1183
Average number of shells per batch           ...    35.99 (79.99%)
Average number of basis functions per batch  ...    75.81 (79.80%)
Average number of large shells per batch     ...    30.11 (83.64%)
Average number of large basis fcns per batch ...    62.46 (82.40%)
Maximum spatial batch extension              ...  19.92, 16.89, 25.60 au
Average spatial batch extension              ...   4.23,  4.06,  4.29 au

Time for grid setup =    0.198 sec

------------------------------
INITIAL GUESS: MODEL POTENTIAL
------------------------------
Loading Hartree-Fock densities                     ... done
Calculating cut-offs                               ... done
Setting up the integral package                    ... done
Initializing the effective Hamiltonian             ... done
Starting the Coulomb interaction                   ... done (   0.1 sec)
Reading the grid                                   ... done
Mapping shells                                     ... done
Starting the XC term evaluation                    ... done (   0.1 sec)
  promolecular density results
     # of electrons  =     39.994741768
     EX              =    -34.501320551
     EC              =     -1.323236565
     EX+EC           =    -35.824557116
Transforming the Hamiltonian                       ... done (   0.0 sec)
Diagonalizing the Hamiltonian                      ... done (   0.0 sec)
Back transforming the eigenvectors                 ... done (   0.0 sec)
Now organizing SCF variables                       ... done
                      ------------------
                      INITIAL GUESS DONE (   0.5 sec)
                      ------------------
--------------
SCF ITERATIONS
--------------
ITER       Energy         Delta-E        Max-DP      RMS-DP      [F,P]     Damp
               ***  Starting incremental Fock matrix formation  ***
  0   -283.6551476784   0.000000000000 0.14235541  0.00539432  0.2785279 0.7000
  1   -283.7718270355  -0.116679357137 0.07519498  0.00290072  0.0970307 0.7000
                               ***Turning on DIIS***
  2   -283.8004701665  -0.028643131003 0.04464105  0.00319953  0.0398827 0.0000
  3   -283.8675140200  -0.067043853442 0.05537566  0.00202901  0.0553599 0.0000
  4   -283.8747578334  -0.007243813430 0.01933804  0.00069370  0.0446825 0.0000
  5   -283.8773379103  -0.002580076906 0.00623583  0.00021437  0.0092018 0.0000
  6   -283.8774788629  -0.000140952587 0.00281174  0.00009338  0.0044189 0.0000
                      *** Initiating the SOSCF procedure ***
                           *** Shutting down DIIS ***
                      *** Re-Reading the Fockian *** 
                      *** Removing any level shift *** 
ITER      Energy       Delta-E        Grad      Rot      Max-DP    RMS-DP
  7   -283.87750056  -0.0000217017  0.000202  0.000202  0.000589  0.000043
               *** Restarting incremental Fock matrix formation ***
  8   -283.87750191  -0.0000013463  0.000198  0.000686  0.000863  0.000041
  9   -283.87749946   0.0000024555  0.000478  0.000505  0.000704  0.000028
 10   -283.87750254  -0.0000030886  0.000106  0.000417  0.000430  0.000017
 11   -283.87750199   0.0000005527  0.000318  0.000353  0.000317  0.000012
 12   -283.87750262  -0.0000006322  0.000028  0.000066  0.000144  0.000005
 13   -283.87750259   0.0000000328  0.000043  0.000035  0.000095  0.000003
                  ***Gradient check signals convergence***
              ***Rediagonalizing the Fockian in SOSCF/NRSCF***

               *****************************************************
               *                     SUCCESS                       *
               *           SCF CONVERGED AFTER  14 CYCLES          *
               *****************************************************

Setting up the final grid:

General Integration Accuracy     IntAcc      ...  4.670
Radial Grid Type                 RadialGrid  ... Gauss-Chebyshev
Angular Grid (max. acc.)         AngularGrid ... Lebedev-302
Angular grid pruning method      GridPruning ... 3 (G Style)
Weight generation scheme         WeightScheme... Becke
Basis function cutoff            BFCut       ...    1.0000e-11
Integration weight cutoff        WCut        ...    1.0000e-14
Grids for H and He will be reduced by one unit

# of grid points (after initial pruning)     ...  48030 (   0.0 sec)
# of grid points (after weights+screening)   ...  45357 (   0.1 sec)
nearest neighbour list constructed           ...    0.0 sec
Grid point re-assignment to atoms done       ...    0.0 sec
Grid point division into batches done        ...    0.1 sec
Reduced shell lists constructed in    0.4 sec

Total number of grid points                  ...    45357
Total number of batches                      ...      715
Average number of points per batch           ...       63
Average number of grid points per atom       ...     4536
Average number of shells per batch           ...    32.82 (72.93%)
Average number of basis functions per batch  ...    68.86 (72.49%)
Average number of large shells per batch     ...    26.85 (81.81%)
Average number of large basis fcns per batch ...    54.87 (79.68%)
Maximum spatial batch extension              ...  22.05, 21.49, 22.42 au
Average spatial batch extension              ...   2.84,  2.72,  2.88 au

Final grid set up in    0.4 sec
Final integration                            ... done (   0.4 sec)
Change in XC energy                          ...    -0.000686230
Integrated number of electrons               ...    40.000015440
Previous integrated no of electrons          ...    39.996334335

----------------
TOTAL SCF ENERGY
----------------

Total Energy       :         -283.87818887 Eh           -7724.71824 eV

Components:
Nuclear Repulsion  :          176.68345496 Eh            4807.80123 eV
Electronic Energy  :         -460.56164383 Eh          -12532.51947 eV
One Electron Energy:         -737.60551728 Eh          -20071.26653 eV
Two Electron Energy:          277.04387345 Eh            7538.74706 eV

Virial components:
Potential Energy   :         -565.29916643 Eh          -15382.57235 eV
Kinetic Energy     :          281.42097756 Eh            7657.85412 eV
Virial Ratio       :            2.00873144


DFT components:
N(Alpha)           :       20.000007720161 electrons
N(Beta)            :       20.000007720161 electrons
N(Total)           :       40.000015440323 electrons
E(X)               :      -35.069014743269 Eh       
E(C)               :       -1.344741457687 Eh       
E(XC)              :      -36.413756200955 Eh       

---------------
SCF CONVERGENCE
---------------

  Last Energy change         ...   -4.7809e-08  Tolerance :   1.0000e-08
  Last MAX-Density change    ...    7.0982e-06  Tolerance :   1.0000e-07
  Last RMS-Density change    ...    2.6211e-07  Tolerance :   5.0000e-09
  Last Orbital Gradient      ...    1.5163e-06  Tolerance :   1.0000e-05
  Last Orbital Rotation      ...    2.7767e-06  Tolerance :   1.0000e-05

             **** THE GBW FILE WAS UPDATED (1-ttt_opt.gbw) ****
             **** DENSITY FILE WAS UPDATED (1-ttt_opt.scfp.tmp) ****
             **** ENERGY FILE WAS UPDATED (1-ttt_opt.en.tmp) ****
----------------
ORBITAL ENERGIES
----------------

  NO   OCC          E(Eh)            E(eV) 
   0   2.0000     -18.796197      -511.4705 
   1   2.0000     -18.746595      -510.1208 
   2   2.0000     -13.973887      -380.2488 
   3   2.0000     -10.017573      -272.5920 
   4   2.0000      -9.939494      -270.4674 
   5   2.0000      -0.971230       -26.4285 
   6   2.0000      -0.895495       -24.3677 
   7   2.0000      -0.802914       -21.8484 
   8   2.0000      -0.636636       -17.3237 
   9   2.0000      -0.532663       -14.4945 
  10   2.0000      -0.487931       -13.2773 
  11   2.0000      -0.441227       -12.0064 
  12   2.0000      -0.404918       -11.0184 
  13   2.0000      -0.388555       -10.5731 
  14   2.0000      -0.372902       -10.1472 
  15   2.0000      -0.333311        -9.0699 
  16   2.0000      -0.331299        -9.0151 
  17   2.0000      -0.268200        -7.2981 
  18   2.0000      -0.223473        -6.0810 
  19   2.0000      -0.189412        -5.1542 
  20   0.0000      -0.044887        -1.2214 
  21   0.0000       0.026986         0.7343 
  22   0.0000       0.037832         1.0295 
  23   0.0000       0.082000         2.2313 
  24   0.0000       0.088227         2.4008 
  25   0.0000       0.141390         3.8474 
  26   0.0000       0.145447         3.9578 
  27   0.0000       0.168236         4.5779 
  28   0.0000       0.250359         6.8126 
  29   0.0000       0.295901         8.0519 
  30   0.0000       0.380827        10.3628 
  31   0.0000       0.410874        11.1805 
  32   0.0000       0.439025        11.9465 
  33   0.0000       0.493143        13.4191 
  34   0.0000       0.503965        13.7136 
  35   0.0000       0.518297        14.1036 
  36   0.0000       0.547345        14.8940 
  37   0.0000       0.576176        15.6785 
  38   0.0000       0.603101        16.4112 
  39   0.0000       0.609056        16.5733 
  40   0.0000       0.611108        16.6291 
  41   0.0000       0.680187        18.5088 
  42   0.0000       0.736689        20.0463 
  43   0.0000       0.786075        21.3902 
  44   0.0000       0.816800        22.2263 
  45   0.0000       0.818686        22.2776 
  46   0.0000       0.874023        23.7834 
  47   0.0000       0.906167        24.6581 
  48   0.0000       0.914785        24.8926 
  49   0.0000       1.004785        27.3416 
  50   0.0000       1.025930        27.9170 
  51   0.0000       1.105959        30.0947 
  52   0.0000       1.163487        31.6601 
  53   0.0000       1.185257        32.2525 
  54   0.0000       1.300972        35.4012 
  55   0.0000       1.324684        36.0465 
  56   0.0000       1.335762        36.3479 
  57   0.0000       1.363015        37.0895 
  58   0.0000       1.456336        39.6289 
  59   0.0000       1.493550        40.6416 
  60   0.0000       1.568131        42.6710 
  61   0.0000       1.580472        43.0068 
  62   0.0000       1.636832        44.5405 
  63   0.0000       1.674310        45.5603 
  64   0.0000       1.738837        47.3162 
  65   0.0000       1.745310        47.4923 
  66   0.0000       1.759942        47.8905 
  67   0.0000       1.827614        49.7319 
  68   0.0000       1.876973        51.0750 
  69   0.0000       1.882420        51.2232 
  70   0.0000       1.936422        52.6927 
  71   0.0000       2.057015        55.9742 
  72   0.0000       2.105088        57.2824 
  73   0.0000       2.106148        57.3112 
  74   0.0000       2.210342        60.1465 
  75   0.0000       2.266197        61.6663 
  76   0.0000       2.288360        62.2694 
  77   0.0000       2.320368        63.1404 
  78   0.0000       2.542718        69.1909 
  79   0.0000       2.580762        70.2261 
  80   0.0000       2.614735        71.1506 
  81   0.0000       2.638351        71.7932 
  82   0.0000       2.717876        73.9572 
  83   0.0000       2.774544        75.4992 
  84   0.0000       2.782288        75.7099 
  85   0.0000       2.822101        76.7933 
  86   0.0000       2.930369        79.7394 
  87   0.0000       2.936180        79.8975 
  88   0.0000       3.026017        82.3421 
  89   0.0000       3.056839        83.1808 
  90   0.0000       3.144059        85.5542 
  91   0.0000       3.338929        90.8569 
  92   0.0000       3.376415        91.8769 
  93   0.0000       3.452781        93.9549 
  94   0.0000       3.640078        99.0516 

                    ********************************
                    * MULLIKEN POPULATION ANALYSIS *
                    ********************************

-----------------------
MULLIKEN ATOMIC CHARGES
-----------------------
   0 N :   -0.198492
   1 C :    0.063586
   2 H :    0.111471
   3 H :    0.111471
   4 C :    0.061401
   5 H :    0.053092
   6 H :    0.053092
   7 O :   -0.229784
   8 O :   -0.197959
   9 H :    0.172122
Sum of atomic charges:   -0.0000000

--------------------------------
MULLIKEN REDUCED ORBITAL CHARGES
--------------------------------
  0 N s       :     3.377567  s :     3.377567
      pz      :     0.992255  p :     3.804970
      px      :     1.354836
      py      :     1.457879
      dz2     :     0.003533  d :     0.015955
      dxz     :     0.004677
      dyz     :     0.001421
      dx2y2   :     0.003114
      dxy     :     0.003210
  1 C s       :     2.969590  s :     2.969590
      pz      :     1.060166  p :     2.918559
      px      :     0.974824
      py      :     0.883570
      dz2     :     0.007027  d :     0.048265
      dxz     :     0.008729
      dyz     :     0.004926
      dx2y2   :     0.014507
      dxy     :     0.013076
  2 H s       :     0.841390  s :     0.841390
      pz      :     0.020165  p :     0.047139
      px      :     0.013891
      py      :     0.013082
  3 H s       :     0.841390  s :     0.841390
      pz      :     0.020165  p :     0.047139
      px      :     0.013891
      py      :     0.013082
  4 C s       :     3.128089  s :     3.128089
      pz      :     0.847017  p :     2.702541
      px      :     0.933919
      py      :     0.921604
      dz2     :     0.006394  d :     0.107969
      dxz     :     0.019525
      dyz     :     0.009953
      dx2y2   :     0.028490
      dxy     :     0.043607
  5 H s       :     0.924966  s :     0.924966
      pz      :     0.010701  p :     0.021942
      px      :     0.007523
      py      :     0.003718
  6 H s       :     0.924966  s :     0.924966
      pz      :     0.010701  p :     0.021942
      px      :     0.007523
      py      :     0.003718
  7 O s       :     3.784274  s :     3.784274
      pz      :     1.380242  p :     4.430063
      px      :     1.306188
      py      :     1.743633
      dz2     :     0.001719  d :     0.015447
      dxz     :     0.004770
      dyz     :     0.000052
      dx2y2   :     0.005387
      dxy     :     0.003519
  8 O s       :     3.711701  s :     3.711701
      pz      :     1.766943  p :     4.475330
      px      :     1.529652
      py      :     1.178735
      dz2     :     0.001739  d :     0.010928
      dxz     :     0.001352
      dyz     :     0.000802
      dx2y2   :     0.001574
      dxy     :     0.005461
  9 H s       :     0.761035  s :     0.761035
      pz      :     0.017280  p :     0.066843
      px      :     0.024932
      py      :     0.024632


                     *******************************
                     * LOEWDIN POPULATION ANALYSIS *
                     *******************************

----------------------
LOEWDIN ATOMIC CHARGES
----------------------
   0 N :   -0.074517
   1 C :   -0.019458
   2 H :    0.057854
   3 H :    0.057854
   4 C :    0.080404
   5 H :    0.042599
   6 H :    0.042599
   7 O :   -0.195455
   8 O :   -0.072210
   9 H :    0.080332

-------------------------------
LOEWDIN REDUCED ORBITAL CHARGES
-------------------------------
  0 N s       :     3.073584  s :     3.073584
      pz      :     1.121303  p :     3.961379
      px      :     1.388253
      py      :     1.451822
      dz2     :     0.011522  d :     0.039555
      dxz     :     0.012727
      dyz     :     0.002542
      dx2y2   :     0.005386
      dxy     :     0.007378
  1 C s       :     2.843965  s :     2.843965
      pz      :     1.076434  p :     3.057297
      px      :     1.015687
      py      :     0.965177
      dz2     :     0.019976  d :     0.118196
      dxz     :     0.022228
      dyz     :     0.007256
      dx2y2   :     0.033115
      dxy     :     0.035621
  2 H s       :     0.811256  s :     0.811256
      pz      :     0.056898  p :     0.130889
      px      :     0.037435
      py      :     0.036557
  3 H s       :     0.811256  s :     0.811256
      pz      :     0.056898  p :     0.130889
      px      :     0.037435
      py      :     0.036557
  4 C s       :     2.912862  s :     2.912862
      pz      :     0.824086  p :     2.770903
      px      :     1.018489
      py      :     0.928329
      dz2     :     0.014857  d :     0.235831
      dxz     :     0.035014
      dyz     :     0.018290
      dx2y2   :     0.066675
      dxy     :     0.100996
  5 H s       :     0.890594  s :     0.890594
      pz      :     0.031851  p :     0.066807
      px      :     0.023342
      py      :     0.011615
  6 H s       :     0.890594  s :     0.890594
      pz      :     0.031851  p :     0.066807
      px      :     0.023342
      py      :     0.011615
  7 O s       :     3.591328  s :     3.591328
      pz      :     1.380049  p :     4.576968
      px      :     1.441096
      py      :     1.755822
      dz2     :     0.003940  d :     0.027159
      dxz     :     0.005925
      dyz     :     0.000063
      dx2y2   :     0.011877
      dxy     :     0.005354
  8 O s       :     3.461405  s :     3.461405
      pz      :     1.731864  p :     4.588344
      px      :     1.603194
      py      :     1.253286
      dz2     :     0.003993  d :     0.022461
      dxz     :     0.000987
      dyz     :     0.001544
      dx2y2   :     0.003364
      dxy     :     0.012573
  9 H s       :     0.739595  s :     0.739595
      pz      :     0.046875  p :     0.180073
      px      :     0.070780
      py      :     0.062418


                      *****************************
                      * MAYER POPULATION ANALYSIS *
                      *****************************

  NA   - Mulliken gross atomic population
  ZA   - Total nuclear charge
  QA   - Mulliken gross atomic charge
  VA   - Mayer's total valence
  BVA  - Mayer's bonded valence
  FA   - Mayer's free valence

  ATOM       NA         ZA         QA         VA         BVA        FA
  0 N      7.1985     7.0000    -0.1985     3.1818     3.1818     0.0000
  1 C      5.9364     6.0000     0.0636     3.9129     3.9129    -0.0000
  2 H      0.8885     1.0000     0.1115     1.0146     1.0146     0.0000
  3 H      0.8885     1.0000     0.1115     1.0146     1.0146     0.0000
  4 C      5.9386     6.0000     0.0614     4.2615     4.2615     0.0000
  5 H      0.9469     1.0000     0.0531     0.9883     0.9883     0.0000
  6 H      0.9469     1.0000     0.0531     0.9883     0.9883    -0.0000
  7 O      8.2298     8.0000    -0.2298     2.2534     2.2534    -0.0000
  8 O      8.1980     8.0000    -0.1980     2.2160     2.2160    -0.0000
  9 H      0.8279     1.0000     0.1721     1.0372     1.0372     0.0000

  Mayer bond orders larger than 0.1
B(  0-N ,  1-C ) :   1.1544 B(  0-N ,  2-H ) :   0.9756 B(  0-N ,  3-H ) :   0.9756 
B(  1-C ,  4-C ) :   0.9217 B(  1-C ,  5-H ) :   0.9282 B(  1-C ,  6-H ) :   0.9282 
B(  4-C ,  7-O ) :   2.0663 B(  4-C ,  8-O ) :   1.1567 B(  7-O ,  8-O ) :   0.1020 
B(  8-O ,  9-H ) :   0.9494 

-------
TIMINGS
-------

Total SCF time: 0 days 0 hours 0 min 5 sec 

Total time                  ....       5.785 sec
Sum of individual times     ....       5.634 sec  ( 97.4%)

Fock matrix formation       ....       4.651 sec  ( 80.4%)
  Split-RI-J                ....       2.526 sec  ( 54.3% of F)
  XC integration            ....       2.051 sec  ( 44.1% of F)
    Basis function eval.    ....       0.856 sec  ( 41.8% of XC)
    Density eval.           ....       0.333 sec  ( 16.2% of XC)
    XC-Functional eval.     ....       0.242 sec  ( 11.8% of XC)
    XC-Potential eval.      ....       0.567 sec  ( 27.7% of XC)
Diagonalization             ....       0.015 sec  (  0.3%)
Density matrix formation    ....       0.001 sec  (  0.0%)
Population analysis         ....       0.023 sec  (  0.4%)
Initial guess               ....       0.286 sec  (  4.9%)
Orbital Transformation      ....       0.000 sec  (  0.0%)
Orbital Orthonormalization  ....       0.000 sec  (  0.0%)
DIIS solution               ....       0.004 sec  (  0.1%)
SOSCF solution              ....       0.007 sec  (  0.1%)
Grid generation             ....       0.647 sec  ( 11.2%)

-------------------------   --------------------
FINAL SINGLE POINT ENERGY      -283.878188868419
-------------------------   --------------------

------------------------------------------------------------------------------
                         ORCA SCF GRADIENT CALCULATION
------------------------------------------------------------------------------

Gradient of the Kohn-Sham DFT energy:
Kohn-Sham wavefunction type      ... RKS
Hartree-Fock exchange scaling    ...    0.000
Number of operators              ...    1
Number of atoms                  ...   10
Basis set dimensions             ...   95
Integral neglect threshold       ... 2.5e-11
Integral primitive cutoff        ... 2.5e-12

Nuclear repulsion gradient       ... done
One Electron Gradient            
  ECP gradient                   ... done
Pre-screening matrix             ... done
RI-J gradient                    ... done
Exchange-correlation gradient    ... done

------------------
CARTESIAN GRADIENT
------------------

   1   N   :    0.062650255   -0.011139143   -0.000000000
   2   C   :   -0.010386460    0.001634954   -0.000000000
   3   H   :   -0.031816954    0.009125509   -0.000625338
   4   H   :   -0.031816954    0.009125506    0.000625338
   5   C   :   -0.064306386   -0.045288117    0.000000000
   6   H   :    0.011223786   -0.003373928    0.003770004
   7   H   :    0.011223786   -0.003373929   -0.003770004
   8   O   :    0.058369549   -0.011110342    0.000000000
   9   O   :    0.014752194    0.060606910   -0.000000000
  10   H   :   -0.019892817   -0.006207420   -0.000000000

Difference to translation invariance:
           :   -0.0000000000   -0.0000000000    0.0000000000

Norm of the cartesian gradient     ...    0.1438632850
RMS gradient                       ...    0.0262657221
MAX gradient                       ...    0.0643063858

-------
TIMINGS
-------

Total SCF gradient time            ...        2.675 sec

One electron gradient       ....       0.076 sec  (  2.8%)
Prescreening matrices       ....       0.070 sec  (  2.6%)
RI-J Coulomb gradient       ....       0.521 sec  ( 19.5%)
XC gradient                 ....       1.809 sec  ( 67.6%)
------------------------------------------------------------------------------
                         ORCA GEOMETRY RELAXATION STEP
------------------------------------------------------------------------------

Reading the OPT-File                    .... done
Getting information on internals        .... done
Copying old internal coords+grads       .... done
Making the new internal coordinates     .... (new redundants).... done
Validating the new internal coordinates .... (new redundants).... done
Calculating the B-matrix                .... done
Calculating the G,G- and P matrices     .... done
Transforming gradient to internals      .... done
Projecting the internal gradient        .... done
Number of atoms                         ....  10
Number of internal coordinates          ....  36
Current Energy                          ....  -283.878188868 Eh
Current gradient norm                   ....     0.143863285 Eh/bohr
Maximum allowed component of the step   ....  0.300
Current trust radius                    ....  0.300
Evaluating the initial hessian          ....  (Almloef) done
Projecting the Hessian                  .... done
Forming the augmented Hessian           .... done
Diagonalizing the augmented Hessian     .... done
Last element of RFO vector              ....  0.968066058
Lowest eigenvalues of augmented Hessian:
 -0.024208757  0.011029782  0.012459643  0.016749083  0.017317311
Length of the computed step             ....  0.258965020
The final length of the internal step   ....  0.258965020
Converting the step to cartesian space:
 Initial RMS(Int)=    0.0431608367
Transforming coordinates:
 Iter   0:  RMS(Cart)=    0.0685430342 RMS(Int)=    1.4816042294
 Iter   1:  RMS(Cart)=    0.0021486852 RMS(Int)=    0.0024333213
 Iter   2:  RMS(Cart)=    0.0001850869 RMS(Int)=    0.0002149405
 Iter   3:  RMS(Cart)=    0.0000210860 RMS(Int)=    0.0000215088
 Iter   4:  RMS(Cart)=    0.0000020641 RMS(Int)=    0.0000024715
 Iter   5:  RMS(Cart)=    0.0000002548 RMS(Int)=    0.0000002274
 Iter   6:  RMS(Cart)=    0.0000000237 RMS(Int)=    0.0000000283
done
Storing new coordinates                 .... done

                                .--------------------.
          ----------------------|Geometry convergence|-------------------------
          Item                value                   Tolerance       Converged
          ---------------------------------------------------------------------
          RMS gradient        0.0178549871            0.0001000000      NO
          MAX gradient        0.0590250802            0.0003000000      NO
          RMS step            0.0431608367            0.0020000000      NO
          MAX step            0.1200855628            0.0040000000      NO
          ........................................................
          Max(Bonds)      0.0534      Max(Angles)    6.88
          Max(Dihed)        3.20      Max(Improp)    0.00
          ---------------------------------------------------------------------

The optimization has not yet converged - more geometry cycles are needed


    ---------------------------------------------------------------------------
                         Redundant Internal Coordinates
                            (Angstroem and degrees)

        Definition                    Value    dE/dq     Step     New-Value
    ----------------------------------------------------------------------------
     1. B(C   1,N   0)                1.4490 -0.006378  0.0071    1.4561   
     2. B(H   2,N   0)                1.0007 -0.014127  0.0158    1.0166   
     3. B(H   3,N   0)                1.0007 -0.014127  0.0158    1.0166   
     4. B(C   4,C   1)                1.5220 -0.007848  0.0102    1.5321   
     5. B(H   5,C   1)                1.0972 -0.009502  0.0134    1.1106   
     6. B(H   6,C   1)                1.0972 -0.009502  0.0134    1.1106   
     7. B(O   7,C   4)                1.2584  0.059025 -0.0335    1.2249   
     8. B(O   8,C   4)                1.4300  0.051169 -0.0534    1.3766   
     9. B(H   9,O   8)                0.9600 -0.018375  0.0179    0.9778   
    10. A(C   1,N   0,H   3)          105.52 -0.023413    3.05    108.56   
    11. A(H   2,N   0,H   3)          130.57  0.033159   -6.88    123.69   
    12. A(C   1,N   0,H   2)          105.52 -0.023413    3.05    108.56   
    13. A(C   4,C   1,H   5)          108.58  0.005514   -0.82    107.76   
    14. A(N   0,C   1,H   5)          109.42  0.000684    0.42    109.83   
    15. A(N   0,C   1,H   6)          109.42  0.000684    0.42    109.83   
    16. A(H   5,C   1,H   6)          110.44  0.003385   -2.24    108.20   
    17. A(C   4,C   1,H   6)          108.58  0.005514   -0.82    107.76   
    18. A(N   0,C   1,C   4)          110.40 -0.015825    3.04    113.44   
    19. A(O   7,C   4,O   8)          120.00 -0.005877    0.86    120.86   
    20. A(C   1,C   4,O   8)          120.00  0.028158   -3.85    116.15   
    21. A(C   1,C   4,O   7)          120.00 -0.022281    2.99    122.99   
    22. A(C   4,O   8,H   9)          109.50  0.017738   -2.68    106.82   
    23. D(H   6,C   1,N   0,H   2)    -48.92  0.005703   -3.20    -52.12   
    24. D(H   5,C   1,N   0,H   3)     48.92 -0.005703    3.20     52.12   
    25. D(H   6,C   1,N   0,H   3)    170.04 -0.000684    0.97    171.01   
    26. D(H   5,C   1,N   0,H   2)   -170.04  0.000684   -0.97   -171.01   
    27. D(C   4,C   1,N   0,H   2)     70.52  0.003193   -2.09     68.44   
    28. D(C   4,C   1,N   0,H   3)    -70.52 -0.003193    2.09    -68.44   
    29. D(O   7,C   4,C   1,N   0)      0.00  0.000000    0.00      0.00   
    30. D(O   8,C   4,C   1,H   6)    -60.05 -0.005258    1.83    -58.22   
    31. D(O   8,C   4,C   1,H   5)     60.05  0.005258   -1.83     58.22   
    32. D(O   8,C   4,C   1,N   0)    180.00  0.000000    0.00    180.00   
    33. D(O   7,C   4,C   1,H   6)    119.95 -0.005258    1.83    121.78   
    34. D(O   7,C   4,C   1,H   5)   -119.95  0.005258   -1.83   -121.78   
    35. D(H   9,O   8,C   4,O   7)      0.00 -0.000000    0.00      0.00   
    36. D(H   9,O   8,C   4,C   1)    180.00 -0.000000    0.00    180.00   
    ----------------------------------------------------------------------------

         *************************************************************
         *                GEOMETRY OPTIMIZATION CYCLE   2            *
         *************************************************************
---------------------------------
CARTESIAN COORDINATES (ANGSTROEM)
---------------------------------
  N      0.005651   -1.950564    0.000000
  C     -0.773674   -0.720559    0.000000
  H      0.478023   -2.034341    0.896265
  H      0.478023   -2.034341   -0.896265
  C      0.088180    0.546184   -0.000000
  H     -1.424203   -0.686738   -0.899502
  H     -1.424203   -0.686738    0.899502
  O      1.312764    0.519568   -0.000000
  O     -0.592118    1.742963    0.000000
  H      0.081817    2.451485   -0.000000

----------------------------
CARTESIAN COORDINATES (A.U.)
----------------------------
  NO LB      ZA    FRAG     MASS         X           Y           Z
   0 N     7.0000    0    14.007    0.010679   -3.686032    0.000000
   1 C     6.0000    0    12.011   -1.462031   -1.361658    0.000000
   2 H     1.0000    0     1.008    0.903332   -3.844348    1.693695
   3 H     1.0000    0     1.008    0.903332   -3.844348   -1.693695
   4 C     6.0000    0    12.011    0.166636    1.032138   -0.000000
   5 H     1.0000    0     1.008   -2.691353   -1.297746   -1.699812
   6 H     1.0000    0     1.008   -2.691353   -1.297746    1.699812
   7 O     8.0000    0    15.999    2.480764    0.981841   -0.000000
   8 O     8.0000    0    15.999   -1.118941    3.293723    0.000000
   9 H     1.0000    0     1.008    0.154611    4.632635   -0.000000

--------------------------------
INTERNAL COORDINATES (ANGSTROEM)
--------------------------------
 N      0   0   0     0.000000000000     0.00000000     0.00000000
 C      1   0   0     1.456111440642     0.00000000     0.00000000
 H      1   2   0     1.016584429480   108.56057730     0.00000000
 H      1   2   3     1.016584429095   108.56057671   223.12560785
 C      2   1   3     1.532131868613   113.41169000    68.43719654
 H      2   1   3     1.110601315343   109.82938102   189.01120796
 H      2   1   3     1.110601314888   109.82938132   307.86318492
 O      5   2   1     1.224872990660   122.98507557     0.00000000
 O      5   2   1     1.376621217626   116.15415599   180.00000000
 H      9   5   2     0.977849728331   106.81749902   180.00000000

---------------------------
INTERNAL COORDINATES (A.U.)
---------------------------
 N      0   0   0     0.000000000000     0.00000000     0.00000000
 C      1   0   0     2.751651843283     0.00000000     0.00000000
 H      1   2   0     1.921066163726   108.56057730     0.00000000
 H      1   2   3     1.921066162998   108.56057671   223.12560785
 C      2   1   3     2.895309632732   113.41169000    68.43719654
 H      2   1   3     2.098732329971   109.82938102   189.01120796
 H      2   1   3     2.098732329111   109.82938132   307.86318492
 O      5   2   1     2.314674501184   122.98507557     0.00000000
 O      5   2   1     2.601437091459   116.15415599   180.00000000
 H      9   5   2     1.847868186675   106.81749902   180.00000000

 One Electron integrals                  ... done
 Pre-screening matrix                    ... done

Diagonalization of the overlap matrix:
Smallest eigenvalue                        ... 2.636e-03
Time for diagonalization                   ...    0.002 sec
Threshold for overlap eigenvalues          ... 1.000e-08
Number of eigenvalues below threshold      ... 0
Time for construction of square roots      ...    0.001 sec
Total time needed                          ...    0.003 sec

-------------------
DFT GRID GENERATION
-------------------

General Integration Accuracy     IntAcc      ...  4.340
Radial Grid Type                 RadialGrid  ... Gauss-Chebyshev
Angular Grid (max. acc.)         AngularGrid ... Lebedev-110
Angular grid pruning method      GridPruning ... 3 (G Style)
Weight generation scheme         WeightScheme... Becke
Basis function cutoff            BFCut       ...    1.0000e-11
Integration weight cutoff        WCut        ...    1.0000e-14
Grids for H and He will be reduced by one unit

# of grid points (after initial pruning)     ...  12416 (   0.0 sec)
# of grid points (after weights+screening)   ...  11827 (   0.0 sec)
nearest neighbour list constructed           ...    0.0 sec
Grid point re-assignment to atoms done       ...    0.0 sec
Grid point division into batches done        ...    0.0 sec
Reduced shell lists constructed in    0.1 sec

Total number of grid points                  ...    11827
Total number of batches                      ...      190
Average number of points per batch           ...       62
Average number of grid points per atom       ...     1183
Average number of shells per batch           ...    35.84 (79.64%)
Average number of basis functions per batch  ...    75.51 (79.49%)
Average number of large shells per batch     ...    29.88 (83.39%)
Average number of large basis fcns per batch ...    61.85 (81.91%)
Maximum spatial batch extension              ...  20.98, 18.82, 25.60 au
Average spatial batch extension              ...   4.37,  4.06,  4.20 au

Time for grid setup =    0.101 sec

--------------
SCF ITERATIONS
--------------
ITER       Energy         Delta-E        Max-DP      RMS-DP      [F,P]     Damp
               ***  Starting incremental Fock matrix formation  ***
  0   -283.8881440097   0.000000000000 0.00828658  0.00045973  0.0316404 0.7000
                      *** Initiating the SOSCF procedure ***
                      *** Re-Reading the Fockian *** 
                      *** Removing any level shift *** 
ITER      Energy       Delta-E        Grad      Rot      Max-DP    RMS-DP
  1   -283.89012640  -0.0019823925  0.002357  0.002357  0.026053  0.001354
               *** Restarting incremental Fock matrix formation ***
  2   -283.89469653  -0.0045701315  0.002246  0.009075  0.012840  0.000531
  3   -283.89451277   0.0001837631  0.006542  0.009220  0.010050  0.000327
  4   -283.89478451  -0.0002717440  0.002425  0.003826  0.010846  0.000303
  5   -283.89470213   0.0000823842  0.002767  0.002787  0.007732  0.000202
  6   -283.89483344  -0.0001313063  0.000336  0.000510  0.001202  0.000052
  7   -283.89483069   0.0000027457  0.000690  0.000362  0.000847  0.000034
  8   -283.89483504  -0.0000043488  0.000049  0.000119  0.000231  0.000012
  9   -283.89483496   0.0000000788  0.000088  0.000064  0.000128  0.000007
 10   -283.89483511  -0.0000001469  0.000010  0.000015  0.000046  0.000002
 11   -283.89483511   0.0000000002  0.000013  0.000010  0.000025  0.000001
                  ***Gradient check signals convergence***
              ***Rediagonalizing the Fockian in SOSCF/NRSCF***

               *****************************************************
               *                     SUCCESS                       *
               *           SCF CONVERGED AFTER  12 CYCLES          *
               *****************************************************

Setting up the final grid:

General Integration Accuracy     IntAcc      ...  4.670
Radial Grid Type                 RadialGrid  ... Gauss-Chebyshev
Angular Grid (max. acc.)         AngularGrid ... Lebedev-302
Angular grid pruning method      GridPruning ... 3 (G Style)
Weight generation scheme         WeightScheme... Becke
Basis function cutoff            BFCut       ...    1.0000e-11
Integration weight cutoff        WCut        ...    1.0000e-14
Grids for H and He will be reduced by one unit

# of grid points (after initial pruning)     ...  48030 (   0.0 sec)
# of grid points (after weights+screening)   ...  45359 (   0.1 sec)
nearest neighbour list constructed           ...    0.0 sec
Grid point re-assignment to atoms done       ...    0.0 sec
Grid point division into batches done        ...    0.1 sec
Reduced shell lists constructed in    0.4 sec

Total number of grid points                  ...    45359
Total number of batches                      ...      714
Average number of points per batch           ...       63
Average number of grid points per atom       ...     4536
Average number of shells per batch           ...    32.74 (72.75%)
Average number of basis functions per batch  ...    68.60 (72.21%)
Average number of large shells per batch     ...    26.76 (81.74%)
Average number of large basis fcns per batch ...    54.74 (79.80%)
Maximum spatial batch extension              ...  21.33, 20.39, 22.22 au
Average spatial batch extension              ...   2.80,  2.70,  2.78 au

Final grid set up in    0.5 sec
Final integration                            ... done (   0.4 sec)
Change in XC energy                          ...    -0.000533954
Integrated number of electrons               ...    40.000012029
Previous integrated no of electrons          ...    39.996578347
Total Energy       :         -283.89536906 Eh           -7725.18573 eV
  Last Energy change         ...   -3.5637e-09  Tolerance :   1.0000e-08
  Last MAX-Density change    ...    1.1256e-05  Tolerance :   1.0000e-07
             **** THE GBW FILE WAS UPDATED (1-ttt_opt.gbw) ****
             **** DENSITY FILE WAS UPDATED (1-ttt_opt.scfp.tmp) ****
             **** ENERGY FILE WAS UPDATED (1-ttt_opt.en.tmp) ****
Total SCF time: 0 days 0 hours 0 min 4 sec 

-------------------------   --------------------
FINAL SINGLE POINT ENERGY      -283.895369064680
-------------------------   --------------------

------------------------------------------------------------------------------
                         ORCA SCF GRADIENT CALCULATION
------------------------------------------------------------------------------

Gradient of the Kohn-Sham DFT energy:
Kohn-Sham wavefunction type      ... RKS
Hartree-Fock exchange scaling    ...    0.000
Number of operators              ...    1
Number of atoms                  ...   10
Basis set dimensions             ...   95
Integral neglect threshold       ... 2.5e-11
Integral primitive cutoff        ... 2.5e-12

Nuclear repulsion gradient       ... done
One Electron Gradient            
  ECP gradient                   ... done
Pre-screening matrix             ... done
RI-J gradient                    ... done
Exchange-correlation gradient    ... done

------------------
CARTESIAN GRADIENT
------------------

   1   N   :    0.040113561   -0.014192055    0.000000000
   2   C   :   -0.007177801    0.004790351    0.000000000
   3   H   :   -0.018129696    0.004638282    0.008304031
   4   H   :   -0.018129696    0.004638282   -0.008304032
   5   C   :   -0.019737085   -0.017037094    0.000000000
   6   H   :    0.004045576   -0.001679722   -0.001643315
   7   H   :    0.004045575   -0.001679721    0.001643316
   8   O   :    0.011730082    0.000410496   -0.000000000
   9   O   :    0.007744588    0.019224323   -0.000000000
  10   H   :   -0.004505104    0.000886856   -0.000000000

Difference to translation invariance:
           :    0.0000000000   -0.0000000000   -0.0000000000

Norm of the cartesian gradient     ...    0.0635238913
RMS gradient                       ...    0.0115978227
MAX gradient                       ...    0.0401135606

-------
TIMINGS
-------

Total SCF gradient time            ...        2.271 sec

One electron gradient       ....       0.031 sec  (  1.4%)
Prescreening matrices       ....       0.040 sec  (  1.7%)
RI-J Coulomb gradient       ....       0.387 sec  ( 17.1%)
XC gradient                 ....       1.695 sec  ( 74.6%)
------------------------------------------------------------------------------
                         ORCA GEOMETRY RELAXATION STEP
------------------------------------------------------------------------------

Reading the OPT-File                    .... done
Getting information on internals        .... done
Copying old internal coords+grads       .... done
Making the new internal coordinates     .... (new redundants).... done
Validating the new internal coordinates .... (new redundants).... done
Calculating the B-matrix                .... done
Calculating the G,G- and P matrices     .... done
Transforming gradient to internals      .... done
Projecting the internal gradient        .... done
Number of atoms                         ....  10
Number of internal coordinates          ....  36
Current Energy                          ....  -283.895369065 Eh
Current gradient norm                   ....     0.063523891 Eh/bohr
Maximum allowed component of the step   ....  0.300
Current trust radius                    ....  0.300
Updating the Hessian (BFGS)             .... done
Forming the augmented Hessian           .... done
Diagonalizing the augmented Hessian     .... done
Last element of RFO vector              ....  0.956794805
Lowest eigenvalues of augmented Hessian:
 -0.011033008  0.011029782  0.012459643  0.016749083  0.017317311
Length of the computed step             ....  0.303893787
Warning: the length of the step is outside the trust region - taking restricted step instead
The input lambda is                     ....    -0.011033
   iter:   1  x=   -0.012211  g=    1.996514 f(x)=     0.002351
   iter:   2  x=   -0.012237  g=    1.912537 f(x)=     0.000050
   iter:   3  x=   -0.012237  g=    1.910731 f(x)=     0.000000
   iter:   4  x=   -0.012237  g=    1.910731 f(x)=     0.000000
The output lambda is                    ....    -0.012237 (4 iterations)
The final length of the internal step   ....  0.300000000
Converting the step to cartesian space:
 Initial RMS(Int)=    0.0500000000
Transforming coordinates:
 Iter   0:  RMS(Cart)=    0.0548137629 RMS(Int)=    1.0484163088
 Iter   1:  RMS(Cart)=    0.0023707872 RMS(Int)=    0.0024709091
 Iter   2:  RMS(Cart)=    0.0001829808 RMS(Int)=    0.0002455367
 Iter   3:  RMS(Cart)=    0.0000247429 RMS(Int)=    0.0000218043
 Iter   4:  RMS(Cart)=    0.0000018991 RMS(Int)=    0.0000026024
 Iter   5:  RMS(Cart)=    0.0000002693 RMS(Int)=    0.0000002187
 Iter   6:  RMS(Cart)=    0.0000000201 RMS(Int)=    0.0000000277
done
Storing new coordinates                 .... done

                                .--------------------.
          ----------------------|Geometry convergence|-------------------------
          Item                value                   Tolerance       Converged
          ---------------------------------------------------------------------
          Energy change      -0.0171801963            0.0000050000      NO
          RMS gradient        0.0072104053            0.0001000000      NO
          MAX gradient        0.0217996789            0.0003000000      NO
          RMS step            0.0500000000            0.0020000000      NO
          MAX step            0.1688140296            0.0040000000      NO
          ........................................................
          Max(Bonds)      0.0350      Max(Angles)    9.67
          Max(Dihed)        5.30      Max(Improp)    0.00
          ---------------------------------------------------------------------

The optimization has not yet converged - more geometry cycles are needed


    ---------------------------------------------------------------------------
                         Redundant Internal Coordinates
                            (Angstroem and degrees)

        Definition                    Value    dE/dq     Step     New-Value
    ----------------------------------------------------------------------------
     1. B(C   1,N   0)                1.4561  0.006202 -0.0108    1.4453   
     2. B(H   2,N   0)                1.0166 -0.001492  0.0049    1.0215   
     3. B(H   3,N   0)                1.0166 -0.001492  0.0049    1.0215   
     4. B(C   4,C   1)                1.5321  0.000219  0.0008    1.5329   
     5. B(H   5,C   1)                1.1106 -0.001087  0.0042    1.1148   
     6. B(H   6,C   1)                1.1106 -0.001087  0.0042    1.1148   
     7. B(O   7,C   4)                1.2249  0.011726 -0.0161    1.2088   
     8. B(O   8,C   4)                1.3766  0.015864 -0.0350    1.3416   
     9. B(H   9,O   8)                0.9778 -0.002448  0.0064    0.9843   
    10. A(C   1,N   0,H   3)          108.56 -0.012973    2.49    111.05   
    11. A(H   2,N   0,H   3)          123.68  0.021800   -9.67    114.01   
    12. A(C   1,N   0,H   2)          108.56 -0.012973    2.49    111.05   
    13. A(C   4,C   1,H   5)          107.72  0.001483   -0.48    107.23   
    14. A(N   0,C   1,H   5)          109.83 -0.000865    0.66    110.49   
    15. A(N   0,C   1,H   6)          109.83 -0.000865    0.66    110.49   
    16. A(H   5,C   1,H   6)          108.18  0.002719   -2.24    105.94   
    17. A(C   4,C   1,H   6)          107.72  0.001483   -0.48    107.23   
    18. A(N   0,C   1,C   4)          113.41 -0.003587    1.76    115.17   
    19. A(O   7,C   4,O   8)          120.86 -0.009220    2.19    123.05   
    20. A(C   1,C   4,O   8)          116.15  0.016930   -4.39    111.77   
    21. A(C   1,C   4,O   7)          122.99 -0.007710    2.20    125.18   
    22. A(C   4,O   8,H   9)          106.82  0.007127   -2.15    104.66   
    23. D(H   6,C   1,N   0,H   2)    -52.14  0.004880   -5.30    -57.43   
    24. D(H   5,C   1,N   0,H   3)     52.14 -0.004880    5.30     57.43   
    25. D(H   6,C   1,N   0,H   3)    170.99 -0.002603    3.36    174.35   
    26. D(H   5,C   1,N   0,H   2)   -170.99  0.002603   -3.36   -174.35   
    27. D(C   4,C   1,N   0,H   2)     68.44  0.003741   -4.33     64.11   
    28. D(C   4,C   1,N   0,H   3)    -68.44 -0.003741    4.33    -64.11   
    29. D(O   7,C   4,C   1,N   0)      0.00 -0.000000    0.00      0.00   
    30. D(O   8,C   4,C   1,H   6)    -58.24 -0.002355    1.59    -56.65   
    31. D(O   8,C   4,C   1,H   5)     58.24  0.002355   -1.59     56.65   
    32. D(O   8,C   4,C   1,N   0)   -180.00 -0.000000    0.00   -180.00   
    33. D(O   7,C   4,C   1,H   6)    121.76 -0.002355    1.59    123.35   
    34. D(O   7,C   4,C   1,H   5)   -121.76  0.002355   -1.59   -123.35   
    35. D(H   9,O   8,C   4,O   7)      0.00  0.000000   -0.00     -0.00   
    36. D(H   9,O   8,C   4,C   1)   -180.00  0.000000   -0.00   -180.00   
    ----------------------------------------------------------------------------

         *************************************************************
         *                GEOMETRY OPTIMIZATION CYCLE   3            *
         *************************************************************
---------------------------------
CARTESIAN COORDINATES (ANGSTROEM)
---------------------------------
  N     -0.041286   -1.953781    0.000000
  C     -0.759961   -0.699797   -0.000000
  H      0.502911   -2.065860    0.857121
  H      0.502911   -2.065860   -0.857121
  C      0.120357    0.555115   -0.000000
  H     -1.428200   -0.633232   -0.889838
  H     -1.428200   -0.633232    0.889838
  O      1.329136    0.557964   -0.000000
  O     -0.613976    1.677959    0.000000
  H      0.046569    2.407645    0.000000

----------------------------
CARTESIAN COORDINATES (A.U.)
----------------------------
  NO LB      ZA    FRAG     MASS         X           Y           Z
   0 N     7.0000    0    14.007   -0.078019   -3.692110    0.000000
   1 C     6.0000    0    12.011   -1.436118   -1.322425   -0.000000
   2 H     1.0000    0     1.008    0.950364   -3.903910    1.619724
   3 H     1.0000    0     1.008    0.950364   -3.903910   -1.619724
   4 C     6.0000    0    12.011    0.227442    1.049015   -0.000000
   5 H     1.0000    0     1.008   -2.698908   -1.196636   -1.681551
   6 H     1.0000    0     1.008   -2.698908   -1.196636    1.681551
   7 O     8.0000    0    15.999    2.511703    1.054399   -0.000000
   8 O     8.0000    0    15.999   -1.160246    3.170883    0.000000
   9 H     1.0000    0     1.008    0.088003    4.549789    0.000000

--------------------------------
INTERNAL COORDINATES (ANGSTROEM)
--------------------------------
 N      0   0   0     0.000000000000     0.00000000     0.00000000
 C      1   0   0     1.445326583775     0.00000000     0.00000000
 H      1   2   0     1.021453903121   111.10709918     0.00000000
 H      1   2   3     1.021453899988   111.10709855   231.82438641
 C      2   1   3     1.532893848684   115.13278736    64.08780671
 H      2   1   3     1.114803564831   110.47892434   185.65237483
 H      2   1   3     1.114803561243   110.47892396   302.52323888
 O      5   2   1     1.208782330261   125.18463230     0.00000000
 O      5   2   1     1.341649866398   111.76599558   180.00000000
 H      9   5   2     0.984256532231   104.66274702   180.00000000

---------------------------
INTERNAL COORDINATES (A.U.)
---------------------------
 N      0   0   0     0.000000000000     0.00000000     0.00000000
 C      1   0   0     2.731271417412     0.00000000     0.00000000
 H      1   2   0     1.930268135323   111.10709918     0.00000000
 H      1   2   3     1.930268129403   111.10709855   231.82438641
 C      2   1   3     2.896749566385   115.13278736    64.08780671
 H      2   1   3     2.106673430649   110.47892434   185.65237483
 H      2   1   3     2.106673423870   110.47892396   302.52323888
 O      5   2   1     2.284267559716   125.18463230     0.00000000
 O      5   2   1     2.535350815104   111.76599558   180.00000000
 H      9   5   2     1.859975291440   104.66274702   180.00000000

 One Electron integrals                  ... done
 Pre-screening matrix                    ... done

Diagonalization of the overlap matrix:
Smallest eigenvalue                        ... 2.716e-03
Time for diagonalization                   ...    0.004 sec
Threshold for overlap eigenvalues          ... 1.000e-08
Number of eigenvalues below threshold      ... 0
Time for construction of square roots      ...    0.001 sec
Total time needed                          ...    0.005 sec

-------------------
DFT GRID GENERATION
-------------------

General Integration Accuracy     IntAcc      ...  4.340
Radial Grid Type                 RadialGrid  ... Gauss-Chebyshev
Angular Grid (max. acc.)         AngularGrid ... Lebedev-110
Angular grid pruning method      GridPruning ... 3 (G Style)
Weight generation scheme         WeightScheme... Becke
Basis function cutoff            BFCut       ...    1.0000e-11
Integration weight cutoff        WCut        ...    1.0000e-14
Grids for H and He will be reduced by one unit

# of grid points (after initial pruning)     ...  12416 (   0.0 sec)
# of grid points (after weights+screening)   ...  11821 (   0.0 sec)
nearest neighbour list constructed           ...    0.0 sec
Grid point re-assignment to atoms done       ...    0.0 sec
Grid point division into batches done        ...    0.0 sec
Reduced shell lists constructed in    0.1 sec

Total number of grid points                  ...    11821
Total number of batches                      ...      191
Average number of points per batch           ...       61
Average number of grid points per atom       ...     1182
Average number of shells per batch           ...    35.86 (79.69%)
Average number of basis functions per batch  ...    75.60 (79.58%)
Average number of large shells per batch     ...    29.88 (83.33%)
Average number of large basis fcns per batch ...    61.61 (81.50%)
Maximum spatial batch extension              ...  20.87, 18.78, 25.60 au
Average spatial batch extension              ...   4.35,  4.05,  4.42 au

Time for grid setup =    0.154 sec

--------------
SCF ITERATIONS
--------------
ITER       Energy         Delta-E        Max-DP      RMS-DP      [F,P]     Damp
               ***  Starting incremental Fock matrix formation  ***
  0   -283.8974258339   0.000000000000 0.00625914  0.00035945  0.0217152 0.7000
                      *** Initiating the SOSCF procedure ***
                      *** Re-Reading the Fockian *** 
                      *** Removing any level shift *** 
ITER      Energy       Delta-E        Grad      Rot      Max-DP    RMS-DP
  1   -283.89865770  -0.0012318673  0.001734  0.001734  0.017987  0.001063
               *** Restarting incremental Fock matrix formation ***
  2   -283.90153598  -0.0028782812  0.002012  0.007955  0.009435  0.000423
  3   -283.90140358   0.0001324068  0.005897  0.007249  0.008060  0.000251
  4   -283.90158555  -0.0001819717  0.001401  0.002516  0.007257  0.000210
  5   -283.90155613   0.0000294125  0.001681  0.001731  0.004890  0.000135
  6   -283.90160830  -0.0000521668  0.000227  0.000326  0.000802  0.000036
  7   -283.90160702   0.0000012826  0.000468  0.000208  0.000558  0.000024
  8   -283.90160904  -0.0000020177  0.000023  0.000064  0.000110  0.000006
  9   -283.90160902   0.0000000180  0.000037  0.000031  0.000071  0.000003
 10   -283.90160905  -0.0000000329  0.000006  0.000010  0.000025  0.000001
 11   -283.90160905  -0.0000000012  0.000006  0.000005  0.000013  0.000001
                  ***Gradient check signals convergence***
              ***Rediagonalizing the Fockian in SOSCF/NRSCF***

               *****************************************************
               *                     SUCCESS                       *
               *           SCF CONVERGED AFTER  12 CYCLES          *
               *****************************************************

Setting up the final grid:

General Integration Accuracy     IntAcc      ...  4.670
Radial Grid Type                 RadialGrid  ... Gauss-Chebyshev
Angular Grid (max. acc.)         AngularGrid ... Lebedev-302
Angular grid pruning method      GridPruning ... 3 (G Style)
Weight generation scheme         WeightScheme... Becke
Basis function cutoff            BFCut       ...    1.0000e-11
Integration weight cutoff        WCut        ...    1.0000e-14
Grids for H and He will be reduced by one unit

# of grid points (after initial pruning)     ...  48030 (   0.0 sec)
# of grid points (after weights+screening)   ...  45353 (   0.1 sec)
nearest neighbour list constructed           ...    0.0 sec
Grid point re-assignment to atoms done       ...    0.0 sec
Grid point division into batches done        ...    0.1 sec
Reduced shell lists constructed in    0.4 sec

Total number of grid points                  ...    45353
Total number of batches                      ...      713
Average number of points per batch           ...       63
Average number of grid points per atom       ...     4535
Average number of shells per batch           ...    32.84 (72.98%)
Average number of basis functions per batch  ...    68.90 (72.53%)
Average number of large shells per batch     ...    26.75 (81.44%)
Average number of large basis fcns per batch ...    54.62 (79.27%)
Maximum spatial batch extension              ...  20.47, 20.90, 19.69 au
Average spatial batch extension              ...   2.82,  2.73,  2.83 au

Final grid set up in    0.5 sec
Final integration                            ... done (   0.4 sec)
Change in XC energy                          ...    -0.000199839
Integrated number of electrons               ...    39.999993597
Previous integrated no of electrons          ...    39.998499425
Total Energy       :         -283.90180889 Eh           -7725.36097 eV
  Last Energy change         ...    3.8864e-10  Tolerance :   1.0000e-08
  Last MAX-Density change    ...    4.9561e-06  Tolerance :   1.0000e-07
             **** THE GBW FILE WAS UPDATED (1-ttt_opt.gbw) ****
             **** DENSITY FILE WAS UPDATED (1-ttt_opt.scfp.tmp) ****
             **** ENERGY FILE WAS UPDATED (1-ttt_opt.en.tmp) ****
Total SCF time: 0 days 0 hours 0 min 4 sec 

-------------------------   --------------------
FINAL SINGLE POINT ENERGY      -283.901808891334
-------------------------   --------------------

------------------------------------------------------------------------------
                         ORCA SCF GRADIENT CALCULATION
------------------------------------------------------------------------------

Gradient of the Kohn-Sham DFT energy:
Kohn-Sham wavefunction type      ... RKS
Hartree-Fock exchange scaling    ...    0.000
Number of operators              ...    1
Number of atoms                  ...   10
Basis set dimensions             ...   95
Integral neglect threshold       ... 2.5e-11
Integral primitive cutoff        ... 2.5e-12

Nuclear repulsion gradient       ... done
One Electron Gradient            
  ECP gradient                   ... done
Pre-screening matrix             ... done
RI-J gradient                    ... done
Exchange-correlation gradient    ... done

------------------
CARTESIAN GRADIENT
------------------

   1   N   :    0.019408956   -0.001713092   -0.000000001
   2   C   :   -0.004913224    0.003521526    0.000000001
   3   H   :   -0.008035785    0.000021380    0.004736148
   4   H   :   -0.008035788    0.000021381   -0.004736145
   5   C   :    0.007421559    0.010519196   -0.000000001
   6   H   :    0.000551274   -0.000233205   -0.001963200
   7   H   :    0.000551275   -0.000233206    0.001963198
   8   O   :   -0.013769728    0.000824928   -0.000000000
   9   O   :    0.004670389   -0.012011184    0.000000000
  10   H   :    0.002151072   -0.000717723    0.000000000

Difference to translation invariance:
           :   -0.0000000000   -0.0000000000   -0.0000000000

Norm of the cartesian gradient     ...    0.0335538538
RMS gradient                       ...    0.0061260675
MAX gradient                       ...    0.0194089559

-------
TIMINGS
-------

Total SCF gradient time            ...        2.242 sec

One electron gradient       ....       0.029 sec  (  1.3%)
Prescreening matrices       ....       0.038 sec  (  1.7%)
RI-J Coulomb gradient       ....       0.369 sec  ( 16.4%)
XC gradient                 ....       1.706 sec  ( 76.1%)
------------------------------------------------------------------------------
                         ORCA GEOMETRY RELAXATION STEP
[...]
     15       0.000000   0.000000   0.000000   0.000000   0.000000   0.000000
     16       0.000000   0.000000   0.000000   0.000000   0.000000   0.000000
     17       0.000000   0.000000   0.000000   0.000000   0.000000   0.000000
     18       0.000000   0.000000   0.000000   0.000000   0.000000   0.000000
     19       0.000000   0.000000   0.000000   0.000000   0.000000   0.000000
     20       0.000000   0.000000   0.000000   0.000000   0.000000   0.000000
     21       0.000000   0.000000   0.000000   0.000000   0.000000   0.000000
     22       0.000000   0.000000   0.000000   0.000000   0.000000   0.000000
     23       0.000000   0.000000   0.000000   0.000000   0.000000   0.000000
     24       0.000000   0.000000   0.000000   0.000000   0.000000   0.000000
     25       0.000000   0.000000   0.000000   0.000000   0.000000   0.000000
     26       0.000000   0.000000   0.000000   0.000000   0.000000   0.000000
     27       0.000000   0.000000   0.000000   0.000000   0.000000   0.000000
     28       0.000000   0.000000   0.000000   0.000000   0.000000   0.000000
     29       0.000000   0.000000   0.000000   0.000000   0.000000   0.000000
                  6          7          8          9         10         11    
      0       0.000001  -0.000003  -0.256107   0.015314  -0.000000   0.005016
      1       0.000002  -0.000003  -0.170457  -0.266824   0.000004  -0.079754
      2       0.111801  -0.091442   0.000006   0.000001   0.015863   0.000002
      3      -0.000001   0.000001   0.117772   0.022551   0.000001   0.229066
      4      -0.000000   0.000001   0.020602  -0.197005   0.000003   0.071993
      5      -0.152308   0.083320  -0.000005  -0.000002  -0.032474  -0.000003
      6      -0.347234  -0.478385  -0.302002  -0.013793  -0.135970  -0.058988
      7      -0.026821  -0.385438  -0.448436  -0.375453  -0.007103  -0.393847
      8       0.378966   0.258966   0.019873   0.016686   0.119418   0.028326
      9       0.347238   0.478381  -0.302034  -0.013780   0.135967  -0.058984
     10       0.026832   0.385433  -0.448465  -0.375449   0.007106  -0.393851
     11       0.378964   0.258958  -0.019880  -0.016672   0.119417  -0.028315
     12      -0.000001   0.000002   0.153376  -0.121728   0.000002   0.025212
     13       0.000000  -0.000000   0.016525   0.066509   0.000001   0.155358
     14      -0.029145   0.051530  -0.000002  -0.000007  -0.206094  -0.000004
     15       0.250734  -0.072833   0.117854   0.005926  -0.392527   0.201395
     16      -0.055271   0.094308   0.166360  -0.296199  -0.136380   0.063577
     17      -0.354010   0.141966   0.012074   0.004351   0.259747   0.019924
     18      -0.250738   0.072834   0.117843   0.005941   0.392533   0.201412
     19       0.055265  -0.094302   0.166364  -0.296189   0.136394   0.063583
     20      -0.354009   0.141967  -0.012094  -0.004341   0.259742  -0.019918
     21      -0.000000   0.000002   0.155585  -0.124036  -0.000001   0.003253
     22      -0.000001   0.000003   0.279389   0.141095  -0.000001  -0.255499
     23      -0.111654  -0.016866  -0.000003   0.000002   0.058896   0.000000
     24       0.000001  -0.000001  -0.094937   0.153136  -0.000001  -0.187706
     25      -0.000001  -0.000001  -0.124211   0.278068  -0.000005   0.170741
     26       0.138025  -0.045480   0.000004   0.000000   0.018369   0.000005
     27       0.000002  -0.000004  -0.266359   0.522785  -0.000002  -0.456791
     28      -0.000002   0.000003   0.027430  -0.046986  -0.000013   0.405032
     29       0.140110  -0.148454   0.000004   0.000032   0.637589  -0.000032
                 12         13         14         15         16         17    
      0      -0.000000  -0.008353  -0.000023   0.053661   0.075301  -0.000008
      1      -0.000000  -0.132495  -0.000073   0.170018  -0.102116   0.000008
      2      -0.003622   0.000001   0.009929   0.000003  -0.000003  -0.031139
      3       0.000003  -0.207424   0.000048  -0.112303  -0.083060   0.000009
      4       0.000002  -0.101851   0.000049  -0.116061   0.138443  -0.000010
      5       0.052910  -0.000000  -0.153523  -0.000068   0.000009   0.085983
      6       0.039067   0.172624  -0.113955  -0.246517   0.046718  -0.125111
      7      -0.050966   0.451034   0.410198  -0.532404  -0.225113   0.368748
      8      -0.035848  -0.082657   0.117890   0.146956   0.016368   0.088649
      9      -0.039069   0.172625   0.114167  -0.246415   0.046748   0.125106
     10       0.050957   0.451029  -0.409740  -0.532773  -0.225210  -0.368706
     11      -0.035849   0.082652   0.118021  -0.146841  -0.016342   0.088660
     12      -0.000000   0.116821  -0.000021   0.045823  -0.032928   0.000002
     13       0.000002   0.081467  -0.000009   0.014933   0.193247  -0.000006
     14       0.096022  -0.000003   0.192082   0.000086  -0.000009  -0.106174
     15       0.205153  -0.170644  -0.430594  -0.122411  -0.099029   0.178214
     16       0.071119  -0.161336   0.211918  -0.262729  -0.032520   0.546408
     17      -0.102124  -0.029281   0.205183  -0.008995  -0.001283  -0.010140
     18      -0.205149  -0.170633   0.430701  -0.122025  -0.099067  -0.178200
     19      -0.071118  -0.161331  -0.211684  -0.262920  -0.032665  -0.546436
     20      -0.102122   0.029290   0.205175   0.009183   0.001285  -0.010132
     21       0.000002   0.156016  -0.000026   0.063467  -0.110351   0.000004
     22      -0.000004  -0.014348  -0.000000   0.001576   0.004138  -0.000001
     23      -0.054816   0.000000  -0.045993  -0.000020   0.000001   0.018711
     24      -0.000004  -0.057028   0.000002  -0.005629   0.178906  -0.000008
     25       0.000002   0.085789  -0.000005   0.017435  -0.165782   0.000007
     26      -0.094525   0.000000  -0.034631  -0.000016  -0.000001   0.013597
     27      -0.000004  -0.379443   0.000062  -0.134141  -0.647763   0.000030
     28      -0.000011   0.370714  -0.000060   0.131553   0.547794  -0.000026
     29       0.921989   0.000015   0.035980   0.000018   0.000011   0.003458
                 18         19         20         21         22         23    
      0      -0.159285   0.006879  -0.000000  -0.003592  -0.009491   0.057548
      1       0.114331   0.030579  -0.000001  -0.008193  -0.006825  -0.045733
      2       0.000001  -0.000001  -0.093481   0.000002   0.000000   0.000000
      3       0.177937   0.002924   0.000001   0.073384  -0.060090   0.017883
      4      -0.155669  -0.133507   0.000003   0.115405   0.104859   0.024903
      5      -0.000004   0.000002   0.085463  -0.000002  -0.000001  -0.000000
      6      -0.031406  -0.047122  -0.200743   0.050353   0.036296  -0.504323
      7       0.338891   0.039305   0.441968  -0.016396  -0.033941   0.257172
      8      -0.073764   0.033007   0.087431  -0.035420  -0.029342   0.415006
      9      -0.031416  -0.047118   0.200745   0.050346   0.036295  -0.504325
     10       0.338925   0.039296  -0.441970  -0.016380  -0.033938   0.257166
     11       0.073753  -0.033005   0.087438   0.035416   0.029342  -0.415006
     12      -0.020518   0.006604  -0.000000   0.009848   0.011080   0.004112
     13       0.090716  -0.121073  -0.000002  -0.213182  -0.108264  -0.004954
     14       0.000007  -0.000002   0.019794  -0.000002  -0.000001  -0.000000
     15       0.122984   0.168583   0.105711  -0.421897   0.452664   0.013580
     16      -0.492821   0.502931  -0.486434  -0.269819  -0.316661  -0.062252
     17       0.015692  -0.070022  -0.026631   0.337820  -0.406380  -0.003483
     18       0.123004   0.168577  -0.105720  -0.421895   0.452667   0.013580
     19      -0.492770   0.502929   0.486421  -0.269842  -0.316659  -0.062251
     20      -0.015682   0.070010  -0.026645  -0.337812   0.406383   0.003484
     21      -0.043671  -0.050637   0.000000  -0.008365  -0.010142  -0.005035
     22      -0.003482   0.022655   0.000000   0.031693   0.014725  -0.000313
     23      -0.000001  -0.000000  -0.002573   0.000000   0.000000  -0.000000
     24       0.069968   0.049118   0.000000   0.014910   0.000368   0.000234
     25      -0.043911   0.045651   0.000000   0.064967   0.030691   0.000588
     26      -0.000002   0.000000  -0.002297   0.000001   0.000000   0.000000
     27      -0.262907  -0.427923  -0.000003  -0.302645  -0.106932  -0.004069
     28       0.245227   0.439956   0.000003   0.317169   0.115778   0.003599
     29       0.000003   0.000012   0.000492   0.000010   0.000004   0.000000
                 24         25         26         27         28         29    
      0      -0.004070   0.001484  -0.000000  -0.057051  -0.000000  -0.000087
      1       0.009036   0.000440  -0.000000   0.008640  -0.000001   0.000034
      2      -0.000000   0.000000  -0.002020   0.000000  -0.079644  -0.000000
      3      -0.045328  -0.070133   0.000000  -0.002264  -0.000000  -0.001132
      4      -0.026107   0.006971   0.000001  -0.002309  -0.000000  -0.000636
      5       0.000001   0.000000   0.092589   0.000000  -0.002378   0.000000
      6       0.041109  -0.008420   0.008719   0.402059   0.431472   0.000788
      7       0.028979  -0.001501   0.006483  -0.043382  -0.030860   0.000125
      8      -0.029791  -0.009975   0.009378   0.578475   0.556375   0.000925
      9       0.041109  -0.008420  -0.008719   0.402057  -0.431469   0.000788
     10       0.028978  -0.001501  -0.006483  -0.043391   0.030868   0.000125
     11       0.029790   0.009975   0.009378  -0.578478   0.556376  -0.000925
     12       0.739920  -0.001864   0.000000  -0.000059  -0.000000   0.000846
     13       0.027705   0.000808   0.000000  -0.000351   0.000000   0.003803
     14       0.000006   0.000000   0.001197   0.000000   0.000212   0.000000
     15      -0.101665   0.416314  -0.431813   0.006159   0.006045   0.002580
     16      -0.092177  -0.043610   0.040391   0.000790  -0.001459  -0.001612
     17       0.058087   0.567542  -0.554445   0.011039   0.010672   0.002582
     18      -0.101664   0.416309   0.431810   0.006159  -0.006045   0.002580
     19      -0.092174  -0.043619  -0.040400   0.000790   0.001459  -0.001612
     20      -0.058082  -0.567543  -0.554449  -0.011039   0.010672  -0.002582
     21      -0.464520   0.001273  -0.000000   0.000231   0.000000   0.000725
     22      -0.000516  -0.000120  -0.000000  -0.000084  -0.000000  -0.000501
     23      -0.000006  -0.000000   0.000192   0.000000  -0.000092   0.000000
     24      -0.064958  -0.000235   0.000000  -0.000066   0.000000   0.039847
     25       0.017663  -0.000609   0.000000  -0.000184   0.000000   0.046214
     26       0.000001  -0.000000  -0.000083  -0.000000  -0.000012   0.000001
     27       0.305020   0.005014   0.000000   0.001391  -0.000000  -0.646095
     28      -0.290382   0.002994   0.000000   0.001067  -0.000000  -0.760779
     29       0.000000  -0.000000  -0.001049  -0.000000   0.000096  -0.000010


-----------
IR SPECTRUM
-----------

 Mode    freq (cm**-1)   T**2         TX         TY         TZ
-------------------------------------------------------------------
   6:        66.82    5.267714  (  0.000044  -0.000011   2.295150)
   7:       235.01   42.612053  ( -0.000084   0.000126   6.527791)
   8:       252.49    9.939308  (  0.105314  -3.150907  -0.000119)
   9:       457.74   32.134994  (  1.361842  -5.502761   0.000172)
  10:       493.95   33.348177  (  0.000569  -0.000243   5.774788)
  11:       625.14    5.890695  (  1.900814   1.509172  -0.000155)
  12:       662.91   84.063382  (  0.000382  -0.000184   9.168609)
  13:       808.82  102.872622  ( -0.041523  10.142529   0.000059)
  14:       896.73    3.611285  (  0.000671   0.004474   1.900333)
  15:       898.64  114.177620  ( -2.017012 -10.493297   0.000941)
  16:      1118.30  222.047546  ( -5.681500  13.775635   0.000049)
  17:      1130.32    0.804072  (  0.000640  -0.000886  -0.896700)
  18:      1150.61   30.640033  ( -0.411458   5.520030   0.000102)
  19:      1258.39   12.391562  (  1.154693  -3.325394   0.000074)
  20:      1332.71    1.084326  ( -0.000141  -0.000031  -1.041310)
  21:      1353.54   32.944275  ( -2.524921  -5.154517   0.000046)
  22:      1378.87   11.445530  (  2.645678  -2.108535  -0.000009)
  23:      1603.16   16.146347  ( -4.017091  -0.096593   0.000007)
  24:      1804.70  247.934604  ( 15.294655  -3.742742  -0.000065)
  25:      2965.15   17.165978  ( -3.300150   2.504992  -0.000090)
  26:      3009.65    6.077168  (  0.000076   0.000069   2.465191)
  27:      3409.64    1.115653  (  0.950603   0.460441  -0.000006)
  28:      3479.59    2.295630  ( -0.000016   0.000011   1.515134)
  29:      3615.83   36.660441  ( -3.172939  -5.156830  -0.000093)

The first frequency considered to be a vibration is 6
The total number of vibrations considered is 24


--------------------------
THERMOCHEMISTRY AT 298.15K
--------------------------

Temperature         ... 298.15 K
Pressure            ... 1.00 atm
Total Mass          ... 75.07 AMU

Throughout the following assumptions are being made:
  (1) The electronic state is orbitally nondegenerate
  (2) There are no thermally accessible electronically excited states
  (3) Hindered rotations indicated by low frequency modes are not
      treated as such but are treated as vibrations and this may
      cause some error
  (4) All equations used are the standard statistical mechanics
      equations for an ideal gas
  (5) All vibrations are strictly harmonic

freq.      66.82  E(vib)   ...       0.50 
freq.     235.01  E(vib)   ...       0.32 
freq.     252.49  E(vib)   ...       0.30 
freq.     457.74  E(vib)   ...       0.16 
freq.     493.95  E(vib)   ...       0.14 
freq.     625.14  E(vib)   ...       0.09 
freq.     662.91  E(vib)   ...       0.08 
freq.     808.82  E(vib)   ...       0.05 
freq.     896.73  E(vib)   ...       0.03 
freq.     898.64  E(vib)   ...       0.03 
freq.    1118.30  E(vib)   ...       0.01 
freq.    1130.32  E(vib)   ...       0.01 
freq.    1150.61  E(vib)   ...       0.01 
freq.    1258.39  E(vib)   ...       0.01 
freq.    1332.71  E(vib)   ...       0.01 
freq.    1353.54  E(vib)   ...       0.01 
freq.    1378.87  E(vib)   ...       0.01 
freq.    1603.16  E(vib)   ...       0.00 
freq.    1804.70  E(vib)   ...       0.00 
freq.    2965.15  E(vib)   ...       0.00 
freq.    3009.65  E(vib)   ...       0.00 
freq.    3409.64  E(vib)   ...       0.00 
freq.    3479.59  E(vib)   ...       0.00 
freq.    3615.83  E(vib)   ...       0.00 

------------
INNER ENERGY
------------

The inner energy is: U= E(el) + E(ZPE) + E(vib) + E(rot) + E(trans)
    E(el)   - is the total energy from the electronic structure calculation
              = E(kin-el) + E(nuc-el) + E(el-el) + E(nuc-nuc)
    E(ZPE)  - the the zero temperature vibrational energy from the frequency calculation
    E(vib)  - the the finite temperature correction to E(ZPE) due to population
              of excited vibrational states
    E(rot)  - is the rotational thermal energy
    E(trans)- is the translational thermal energy

Summary of contributions to the inner energy U:
Electronic energy                ...   -283.90424842 Eh
Zero point energy                ...      0.07747754 Eh      48.62 kcal/mol
Thermal vibrational correction   ...      0.00284746 Eh       1.79 kcal/mol
Thermal rotational correction    ...      0.00141627 Eh       0.89 kcal/mol
Thermal translational correction ...      0.00141627 Eh       0.89 kcal/mol
-----------------------------------------------------------------------
Total thermal energy                   -283.82109087 Eh


Summary of corrections to the electronic energy:
(perhaps to be used in another calculation)
Total thermal correction                  0.00568001 Eh       3.56 kcal/mol
Non-thermal (ZPE) correction              0.07747754 Eh      48.62 kcal/mol
-----------------------------------------------------------------------
Total correction                          0.08315755 Eh      52.18 kcal/mol


--------
ENTHALPY
--------

The enthalpy is H = U + kB*T
                kB is Boltzmann's constant
Total free energy                 ...   -283.82109087 Eh 
Thermal Enthalpy correction       ...      0.00094421 Eh       0.59 kcal/mol
-----------------------------------------------------------------------
Total Enthalpy                    ...   -283.82014666 Eh


Vibrational entropy computed according to the QRRHO of S. Grimme
Chem.Eur.J. 2012 18 9955

check  

-------
ENTROPY
-------

The entropy contributions are T*S = T*(S(el)+S(vib)+S(rot)+S(trans)
     S(el)   - electronic entropy
     S(vib)  - vibrational entropy
     S(rot)  - rotational entropy
     S(trans)- translational entropy
The entropies will be listed as mutliplied by the temperature to get
units of energy

Electronic entropy                ...      0.00000000 Eh      0.00 kcal/mol
Vibrational entropy               ...      0.00472751 Eh      2.97 kcal/mol
Rotational entropy                ...      0.01105491 Eh      6.94 kcal/mol
Translational entropy             ...      0.01846507 Eh     11.59 kcal/mol
-----------------------------------------------------------------------
Final entropy term                ...      0.03424749 Eh     21.49 kcal/mol


CAUTION: The rotational entropy is not quite correctly treated here
         because it includes a symmetry number that is not yet correctly
         implemented in ORCA!
For a nonlinear molecule the correct rotational entropy is:
    S(rot) = R*(ln(qrot/sn)+1.5)
    R    = 8.31441 J/mol/K = 1.987191683e-3 kcal/mol/K
    qrot = 81395.2776956
    sn is the rotational symmetry number. We have assumed 3 here
       if it is different for your molecule then you should correct
       the printed rotational entropy by manually evaluating the equation
       as given above

For convenience we print out the resulting values for sn=1 - 12:
 sn= 1  qrot/sn=   81395.2777 T*S(rot)=     7.59 kcal/mol T*S(tot)=    22.14 kcal/mol
 sn= 2  qrot/sn=   40697.6388 T*S(rot)=     7.18 kcal/mol T*S(tot)=    21.73 kcal/mol
 sn= 3  qrot/sn=   27131.7592 T*S(rot)=     6.94 kcal/mol T*S(tot)=    21.49 kcal/mol
 sn= 4  qrot/sn=   20348.8194 T*S(rot)=     6.77 kcal/mol T*S(tot)=    21.32 kcal/mol
 sn= 5  qrot/sn=   16279.0555 T*S(rot)=     6.63 kcal/mol T*S(tot)=    21.19 kcal/mol
 sn= 6  qrot/sn=   13565.8796 T*S(rot)=     6.53 kcal/mol T*S(tot)=    21.08 kcal/mol
 sn= 7  qrot/sn=   11627.8968 T*S(rot)=     6.44 kcal/mol T*S(tot)=    20.99 kcal/mol
 sn= 8  qrot/sn=   10174.4097 T*S(rot)=     6.36 kcal/mol T*S(tot)=    20.91 kcal/mol
 sn= 9  qrot/sn=    9043.9197 T*S(rot)=     6.29 kcal/mol T*S(tot)=    20.84 kcal/mol
 sn=10  qrot/sn=    8139.5278 T*S(rot)=     6.22 kcal/mol T*S(tot)=    20.78 kcal/mol
 sn=11  qrot/sn=    7399.5707 T*S(rot)=     6.17 kcal/mol T*S(tot)=    20.72 kcal/mol
 sn=12  qrot/sn=    6782.9398 T*S(rot)=     6.12 kcal/mol T*S(tot)=    20.67 kcal/mol


-------------------
GIBBS FREE ENTHALPY
-------------------

The Gibbs free enthalpy is G = H - T*S

Total enthalpy                    ...   -283.82014666 Eh 
Total entropy correction          ...     -0.03424749 Eh    -21.49 kcal/mol
-----------------------------------------------------------------------
Final Gibbs free enthalpy         ...   -283.85439415 Eh

For completeness - the Gibbs free enthalpy minus the electronic energy
G-E(el)                           ...      0.04985427 Eh     31.28 kcal/mol


Timings for individual modules:

Sum of individual times         ...      141.467 sec (=   2.358 min)
GTO integral calculation        ...        5.352 sec (=   0.089 min)   3.8 %
SCF iterations                  ...       40.695 sec (=   0.678 min)  28.8 %
SCF Gradient evaluation         ...       22.965 sec (=   0.383 min)  16.2 %
Geometry relaxation             ...        4.222 sec (=   0.070 min)   3.0 %
Analytical frequency calculation...       68.232 sec (=   1.137 min)  48.2 %
                             ****ORCA TERMINATED NORMALLY****
TOTAL RUN TIME: 0 days 0 hours 2 minutes 25 seconds 941 msec
