
                                 *****************
                                 * O   R   C   A *
                                 *****************

           --- An Ab Initio, DFT and Semiempirical electronic structure package ---

                  #######################################################
                  #                        -***-                        #
                  #  Department of molecular theory and spectroscopy    #
                  #              Directorship: Frank Neese              #
                  # Max Planck Institute for Chemical Energy Conversion #
                  #                  D-45470 Muelheim/Ruhr              #
                  #                       Germany                       #
                  #                                                     #
                  #                  All rights reserved                #
                  #                        -***-                        #
                  #######################################################


                         Program Version 4.0.0 -  RELEASE  -


 With contributions from (in alphabetic order):
   Daniel Aravena         : Magnetic Properties
   Michael Atanasov       : Ab Initio Ligand Field Theory
   Ute Becker             : Parallelization
   Martin Brehm           : Molecular dynamics
   Dmytro Bykov           : SCF Hessian
   Vijay G. Chilkuri      : MRCI spin determinant printing
   Dipayan Datta          : RHF DLPNO-CCSD density
   Achintya Kumar Dutta   : EOM-CC, STEOM-CC
   Dmitry Ganyushin       : Spin-Orbit,Spin-Spin,Magnetic field MRCI
   Yang Guo               : DLPNO-NEVPT2, CIM, IAO-localization
   Andreas Hansen         : Spin unrestricted coupled pair/coupled cluster methods
   Lee Huntington         : MR-EOM, pCC
   Robert Izsak           : Overlap fitted RIJCOSX, COSX-SCS-MP3, EOM
   Christian Kollmar      : KDIIS, OOCD, Brueckner-CCSD(T), CCSD density
   Simone Kossmann        : Meta GGA functionals, TD-DFT gradient, OOMP2, MP2 Hessian
   Martin Krupicka        : AUTO-CI
   Dagmar Lenk            : GEPOL surface
   Dimitrios Liakos       : Extrapolation schemes; parallel MDCI
   Dimitrios Manganas     : ROCIS; embedding schemes
   Dimitrios Pantazis     : SARC Basis sets
   Taras Petrenko         : DFT Hessian,TD-DFT gradient, ASA, ECA, R-Raman, ABS, FL, XAS/XES, NRVS
   Peter Pinski           : DLPNO-MP2
   Christoph Reimann      : Effective Core Potentials
   Marius Retegan         : Local ZFS, SOC
   Christoph Riplinger    : Optimizer, TS searches, QM/MM, DLPNO-CCSD(T), (RO)-DLPNO pert. Triples
   Tobias Risthaus        : Range-separated hybrids, TD-DFT gradient, RPA, STAB
   Michael Roemelt        : Restricted open shell CIS
   Masaaki Saitow         : Open-shell DLPNO
   Barbara Sandhoefer     : DKH picture change effects
   Kantharuban Sivalingam : CASSCF convergence, NEVPT2, FIC-MRCI
   Georgi Stoychev        : AutoAux
   Boris Wezisla          : Elementary symmetry handling
   Frank Wennmohs         : Technical directorship


 We gratefully acknowledge several colleagues who have allowed us to
 interface, adapt or use parts of their codes:
   Stefan Grimme, W. Hujo, H. Kruse,             : VdW corrections, initial TS optimization,
                  C. Bannwarth                     DFT functionals, gCP, sTDA/sTD-DF
   Ed Valeev                                     : LibInt (2-el integral package), F12 methods
   Garnet Chan, S. Sharma, J. Yang, R. Olivares  : DMRG
   Ulf Ekstrom                                   : XCFun DFT Library
   Mihaly Kallay                                 : mrcc  (arbitrary order and MRCC methods)
   Jiri Pittner, Ondrej Demel                    : Mk-CCSD
   Frank Weinhold                                : gennbo (NPA and NBO analysis)
   Christopher J. Cramer and Donald G. Truhlar   : smd solvation model


 Your calculation uses the libint2 library for the computation of 2-el integrals
 For citations please refer to: http://libint.valeyev.net

 This ORCA versions uses:
   CBLAS   interface :  Fast vector & matrix operations
   LAPACKE interface :  Fast linear algebra routines
   SCALAPACK package :  Parallel linear algebra routines


Your calculation utilizes the basis: def2-SVP
   F. Weigend and R. Ahlrichs, Phys. Chem. Chem. Phys. 7, 3297 (2005).

Your calculation utilizes the auxiliary basis: def2/J
   F. Weigend, Phys. Chem. Chem. Phys. 8, 1057 (2006).

================================================================================
                                        WARNINGS
                       Please study these warnings very carefully!
================================================================================

Warning: TCutStore was < 0. Adjusted to Thresh (uncritical)

WARNING: Geometry Optimization
  ===> : Switching off AutoStart
         For restart on a previous wavefunction, please use MOREAD

INFO   : the flag for use of LIBINT has been found!

================================================================================
                                       INPUT FILE
================================================================================
NAME = 2-ccc_opt.in
|  1> ! rks pbe def2-svp opt anfreq
|  2> 
|  3> * xyz 0 1
|  4> N                     0.17002  -1.7885    0.
|  5> C                    -0.78851  -0.70186   0.
|  6> H                     0.03504  -2.26046  -0.87538
|  7> H                     0.03504  -2.26046   0.87538
|  8> C                    -0.06969   0.63967   0.
|  9> H                    -1.4156   -0.76439  -0.89627
| 10> H                    -1.4156   -0.76439   0.89627
| 11> O                    -0.73311   1.70897   0.
| 12> O                     1.35957   0.68499   0.
| 13> H                     1.70853  -0.20932   0.
| 14> *
| 15> 
| 16>                          ****END OF INPUT****
================================================================================

                       *****************************
                       * Geometry Optimization Run *
                       *****************************

Geometry optimization settings:
Update method            Update   .... BFGS
Choice of coordinates    CoordSys .... Redundant Internals
Initial Hessian          InHess   .... Almoef's Model

Convergence Tolerances:
Energy Change            TolE     ....  5.0000e-06 Eh
Max. Gradient            TolMAXG  ....  3.0000e-04 Eh/bohr
RMS Gradient             TolRMSG  ....  1.0000e-04 Eh/bohr
Max. Displacement        TolMAXD  ....  4.0000e-03 bohr
RMS Displacement         TolRMSD  ....  2.0000e-03 bohr

------------------------------------------------------------------------------
                        ORCA OPTIMIZATION COORDINATE SETUP
------------------------------------------------------------------------------

The optimization will be done in new redundant internal coordinates
Making redundant internal coordinates   ...  (new redundants) done
Evaluating the initial hessian          ...  (Almloef) done
Evaluating the coordinates              ...  done
Calculating the B-matrix                .... done
Calculating the G-matrix                .... done
Diagonalizing the G-matrix              .... done
The first mode is                       ....   12
The number of degrees of freedom        ....   24

    -----------------------------------------------------------------
                    Redundant Internal Coordinates


    -----------------------------------------------------------------
         Definition                    Initial Value    Approx d2E/dq
    -----------------------------------------------------------------
      1. B(C   1,N   0)                  1.4490         0.450572   
      2. B(H   2,N   0)                  1.0036         0.442967   
      3. B(H   3,N   0)                  1.0036         0.442967   
      4. B(C   4,C   1)                  1.5220         0.384753   
      5. B(H   5,C   1)                  1.0957         0.352701   
      6. B(H   6,C   1)                  1.0957         0.352701   
      7. B(O   7,C   4)                  1.2584         0.907531   
      8. B(O   8,C   4)                  1.4300         0.483162   
      9. B(H   9,O   8)                  0.9600         0.519993   
     10. A(C   1,N   0,H   3)          105.2892         0.341207   
     11. A(H   2,N   0,H   3)          121.4356         0.305542   
     12. A(C   1,N   0,H   2)          105.2892         0.341207   
     13. A(C   4,C   1,H   5)          108.7004         0.324784   
     14. A(N   0,C   1,H   5)          109.6222         0.331353   
     15. A(N   0,C   1,H   6)          109.6222         0.331353   
     16. A(H   5,C   1,H   6)          109.7751         0.288951   
     17. A(C   4,C   1,H   6)          108.7004         0.324784   
     18. A(N   0,C   1,C   4)          110.4010         0.374784   
     19. A(O   7,C   4,O   8)          120.0003         0.438676   
     20. A(C   1,C   4,O   8)          119.9995         0.379337   
     21. A(C   1,C   4,O   7)          120.0002         0.423863   
     22. A(C   4,O   8,H   9)          109.4996         0.354693   
     23. D(H   6,C   1,N   0,H   2)    124.9990         0.017319   
     24. D(H   5,C   1,N   0,H   3)   -124.9990         0.017319   
     25. D(H   6,C   1,N   0,H   3)     -4.4390         0.017319   
     26. D(H   5,C   1,N   0,H   2)      4.4390         0.017319   
     27. D(C   4,C   1,N   0,H   2)   -115.2810         0.017319   
     28. D(C   4,C   1,N   0,H   3)    115.2810         0.017319   
     29. D(O   7,C   4,C   1,N   0)    180.0000         0.011030   
     30. D(O   8,C   4,C   1,H   6)    120.2748         0.011030   
     31. D(O   8,C   4,C   1,H   5)   -120.2748         0.011030   
     32. D(O   8,C   4,C   1,N   0)      0.0000         0.011030   
     33. D(O   7,C   4,C   1,H   6)    -59.7252         0.011030   
     34. D(O   7,C   4,C   1,H   5)     59.7252         0.011030   
     35. D(H   9,O   8,C   4,O   7)    180.0000         0.016751   
     36. D(H   9,O   8,C   4,C   1)      0.0000         0.016751   
    -----------------------------------------------------------------

Number of atoms                         .... 10
Number of degrees of freedom            .... 36

         *************************************************************
         *                GEOMETRY OPTIMIZATION CYCLE   1            *
         *************************************************************
---------------------------------
CARTESIAN COORDINATES (ANGSTROEM)
---------------------------------
  N      0.170020   -1.788500    0.000000
  C     -0.788510   -0.701860    0.000000
  H      0.035040   -2.260460   -0.875380
  H      0.035040   -2.260460    0.875380
  C     -0.069690    0.639670    0.000000
  H     -1.415600   -0.764390   -0.896270
  H     -1.415600   -0.764390    0.896270
  O     -0.733110    1.708970    0.000000
  O      1.359570    0.684990    0.000000
  H      1.708530   -0.209320    0.000000

----------------------------
CARTESIAN COORDINATES (A.U.)
----------------------------
  NO LB      ZA    FRAG     MASS         X           Y           Z
   0 N     7.0000    0    14.007    0.321291   -3.379775    0.000000
   1 C     6.0000    0    12.011   -1.490068   -1.326323    0.000000
   2 H     1.0000    0     1.008    0.066216   -4.271650   -1.654228
   3 H     1.0000    0     1.008    0.066216   -4.271650    1.654228
   4 C     6.0000    0    12.011   -0.131695    1.208801    0.000000
   5 H     1.0000    0     1.008   -2.675096   -1.444488   -1.693705
   6 H     1.0000    0     1.008   -2.675096   -1.444488    1.693705
   7 O     8.0000    0    15.999   -1.385377    3.229485    0.000000
   8 O     8.0000    0    15.999    2.569215    1.294444    0.000000
   9 H     1.0000    0     1.008    3.228654   -0.395557    0.000000

--------------------------------
INTERNAL COORDINATES (ANGSTROEM)
--------------------------------
 N      0   0   0     0.000000000000     0.00000000     0.00000000
 C      1   0   0     1.448988009095     0.00000000     0.00000000
 H      1   2   0     1.003621435801   105.28916349     0.00000000
 H      1   2   3     1.003621435801   105.28916349   230.56199490
 C      2   1   3     1.521974025173   110.40099736   244.71900255
 H      2   1   3     1.095651304887   109.62217882     4.43901833
 H      2   1   3     1.095651304887   109.62217882   124.99898677
 O      5   2   1     1.258383322521   120.00017615   180.00000000
 O      5   2   1     1.429978338997   119.99950963     0.00000000
 H      9   5   2     0.959980967363   109.49957540     0.00000000

---------------------------
INTERNAL COORDINATES (A.U.)
---------------------------
 N      0   0   0     0.000000000000     0.00000000     0.00000000
 C      1   0   0     2.738190508525     0.00000000     0.00000000
 H      1   2   0     1.896569655797   105.28916349     0.00000000
 H      1   2   3     1.896569655797   105.28916349   230.56199490
 C      2   1   3     2.876114090518   110.40099736   244.71900255
 H      2   1   3     2.070480904509   109.62217882     4.43901833
 H      2   1   3     2.070480904509   109.62217882   124.99898677
 O      5   2   1     2.377999851059   120.00017615   180.00000000
 O      5   2   1     2.702267438144   119.99950963     0.00000000
 H      9   5   2     1.814101122094   109.49957540     0.00000000

---------------------
BASIS SET INFORMATION
---------------------
There are 4 groups of distinct atoms

 Group   1 Type N   : 7s4p1d contracted to 3s2p1d pattern {511/31/1}
 Group   2 Type C   : 7s4p1d contracted to 3s2p1d pattern {511/31/1}
 Group   3 Type H   : 4s1p contracted to 2s1p pattern {31/1}
 Group   4 Type O   : 7s4p1d contracted to 3s2p1d pattern {511/31/1}

Atom   0N    basis set group =>   1
Atom   1C    basis set group =>   2
Atom   2H    basis set group =>   3
Atom   3H    basis set group =>   3
Atom   4C    basis set group =>   2
Atom   5H    basis set group =>   3
Atom   6H    basis set group =>   3
Atom   7O    basis set group =>   4
Atom   8O    basis set group =>   4
Atom   9H    basis set group =>   3
-------------------------------
AUXILIARY BASIS SET INFORMATION
-------------------------------
There are 4 groups of distinct atoms

 Group   1 Type N   : 12s5p4d2f1g contracted to 6s4p3d1f1g pattern {711111/2111/211/2/1}
 Group   2 Type C   : 12s5p4d2f1g contracted to 6s4p3d1f1g pattern {711111/2111/211/2/1}
 Group   3 Type H   : 5s2p1d contracted to 3s1p1d pattern {311/2/1}
 Group   4 Type O   : 12s5p4d2f1g contracted to 6s4p3d1f1g pattern {711111/2111/211/2/1}

Atom   0N    basis set group =>   1
Atom   1C    basis set group =>   2
Atom   2H    basis set group =>   3
Atom   3H    basis set group =>   3
Atom   4C    basis set group =>   2
Atom   5H    basis set group =>   3
Atom   6H    basis set group =>   3
Atom   7O    basis set group =>   4
Atom   8O    basis set group =>   4
Atom   9H    basis set group =>   3
-------------------------
ECP PARAMETER INFORMATION
-------------------------



------------------------------------------------------------------------------
                           ORCA GTO INTEGRAL CALCULATION
                           -- RI-GTO INTEGRALS CHOSEN --
------------------------------------------------------------------------------

                         BASIS SET STATISTICS AND STARTUP INFO

Gaussian basis set:
 # of primitive gaussian shells          ...   85
 # of primitive gaussian functions       ...  155
 # of contracted shells                  ...   45
 # of contracted basis functions         ...   95
 Highest angular momentum                ...    2
 Maximum contraction depth               ...    5
Auxiliary gaussian basis set:
 # of primitive gaussian shells          ...  160
 # of primitive gaussian functions       ...  430
 # of contracted shells                  ...  100
 # of contracted aux-basis functions     ...  300
 Highest angular momentum                ...    4
 Maximum contraction depth               ...    7
Ratio of auxiliary to basis functions    ...  3.16
Integral package used                  ... LIBINT
 One Electron integrals                  
   ECP integrals                         ... done
 Ordering auxiliary basis shells         ... done
 Integral threshhold             Thresh  ...  2.500e-11
 Primitive cut-off               TCut    ...  2.500e-12
 Pre-screening matrix                    ... done
 Shell pair data                         ... 
 Ordering of the shell pairs             ... done (   0.000 sec) 1022 of 1035 pairs
 Determination of significant pairs      ... done (   0.000 sec)
 Creation of shell pair data             ... done (   0.000 sec)
 Storage of shell pair data              ... done (   0.000 sec)
 Shell pair data done in (   0.001 sec)
 Computing two index integrals           ... done
 Cholesky decomposition of the V-matrix  ... done


Timings:
 Total evaluation time                   ...   0.153 sec (  0.003 min)
 One electron matrix time                ...   0.010 sec (  0.000 min) =  6.6%
 Schwartz matrix evaluation time         ...   0.103 sec (  0.002 min) = 67.5%
 Two index repulsion integral time       ...   0.003 sec (  0.000 min) =  1.9%
 Cholesky decomposition of V             ...   0.002 sec (  0.000 min) =  1.0%
 Three index repulsion integral time     ...   0.000 sec (  0.000 min) =  0.0%

-------------------------------------------------------------------------------
                                 ORCA SCF
-------------------------------------------------------------------------------

------------
SCF SETTINGS
------------
Hamiltonian:
 Density Functional     Method          .... DFT(GTOs)
 Exchange Functional    Exchange        .... PBE
   PBE kappa parameter   XKappa         ....  0.804000
   PBE mue parameter    XMuePBE         ....  0.219520
 Correlation Functional Correlation     .... PBE
   PBE beta parameter  CBetaPBE         ....  0.066725
 LDA part of GGA corr.  LDAOpt          .... PW91-LDA
 Gradients option       PostSCFGGA      .... off
   NL short-range parameter             ....  6.400000
 RI-approximation to the Coulomb term is turned on
   Number of auxiliary basis functions  .... 300


General Settings:
 Integral files         IntName         .... 2-ccc_opt
 Hartree-Fock type      HFTyp           .... RHF
 Total Charge           Charge          ....    0
 Multiplicity           Mult            ....    1
 Number of Electrons    NEL             ....   40
 Basis Dimension        Dim             ....   95
 Nuclear Repulsion      ENuc            ....    176.7240566789 Eh

Convergence Acceleration:
 DIIS                   CNVDIIS         .... on
   Start iteration      DIISMaxIt       ....    12
   Startup error        DIISStart       ....  0.200000
   # of expansion vecs  DIISMaxEq       ....     5
   Bias factor          DIISBfac        ....   1.050
   Max. coefficient     DIISMaxC        ....  10.000
 Newton-Raphson         CNVNR           .... off
 SOSCF                  CNVSOSCF        .... on
   Start iteration      SOSCFMaxIt      ....   150
   Startup grad/error   SOSCFStart      ....  0.003300
 Level Shifting         CNVShift        .... on
   Level shift para.    LevelShift      ....    0.2500
   Turn off err/grad.   ShiftErr        ....    0.0010
 Zerner damping         CNVZerner       .... off
 Static damping         CNVDamp         .... on
   Fraction old density DampFac         ....    0.7000
   Max. Damping (<1)    DampMax         ....    0.9800
   Min. Damping (>=0)   DampMin         ....    0.0000
   Turn off err/grad.   DampErr         ....    0.1000
 Fernandez-Rico         CNVRico         .... off

SCF Procedure:
 Maximum # iterations   MaxIter         ....   125
 SCF integral mode      SCFMode         .... Direct
   Integral package                     .... LIBINT
 Reset frequeny         DirectResetFreq ....    20
 Integral Threshold     Thresh          ....  2.500e-11 Eh
 Primitive CutOff       TCut            ....  2.500e-12 Eh

Convergence Tolerance:
 Convergence Check Mode ConvCheckMode   .... Total+1el-Energy
 Convergence forced     ConvForced      .... 0
 Energy Change          TolE            ....  1.000e-08 Eh
 1-El. energy change                    ....  1.000e-05 Eh
 Orbital Gradient       TolG            ....  1.000e-05
 Orbital Rotation angle TolX            ....  1.000e-05
 DIIS Error             TolErr          ....  5.000e-07


Diagonalization of the overlap matrix:
Smallest eigenvalue                        ... 2.477e-03
Time for diagonalization                   ...    0.002 sec
Threshold for overlap eigenvalues          ... 1.000e-08
Number of eigenvalues below threshold      ... 0
Time for construction of square roots      ...    0.000 sec
Total time needed                          ...    0.002 sec

-------------------
DFT GRID GENERATION
-------------------

General Integration Accuracy     IntAcc      ...  4.340
Radial Grid Type                 RadialGrid  ... Gauss-Chebyshev
Angular Grid (max. acc.)         AngularGrid ... Lebedev-110
Angular grid pruning method      GridPruning ... 3 (G Style)
Weight generation scheme         WeightScheme... Becke
Basis function cutoff            BFCut       ...    1.0000e-11
Integration weight cutoff        WCut        ...    1.0000e-14
Grids for H and He will be reduced by one unit

# of grid points (after initial pruning)     ...  12416 (   0.0 sec)
# of grid points (after weights+screening)   ...  11801 (   0.0 sec)
nearest neighbour list constructed           ...    0.0 sec
Grid point re-assignment to atoms done       ...    0.0 sec
Grid point division into batches done        ...    0.0 sec
Reduced shell lists constructed in    0.1 sec

Total number of grid points                  ...    11801
Total number of batches                      ...      189
Average number of points per batch           ...       62
Average number of grid points per atom       ...     1180
Average number of shells per batch           ...    36.11 (80.25%)
Average number of basis functions per batch  ...    76.11 (80.12%)
Average number of large shells per batch     ...    30.23 (83.72%)
Average number of large basis fcns per batch ...    62.18 (81.70%)
Maximum spatial batch extension              ...  21.59, 18.39, 20.95 au
Average spatial batch extension              ...   4.12,  4.14,  4.05 au

Time for grid setup =    0.099 sec

------------------------------
INITIAL GUESS: MODEL POTENTIAL
------------------------------
Loading Hartree-Fock densities                     ... done
Calculating cut-offs                               ... done
Setting up the integral package                    ... done
Initializing the effective Hamiltonian             ... done
Starting the Coulomb interaction                   ... done (   0.0 sec)
Reading the grid                                   ... done
Mapping shells                                     ... done
Starting the XC term evaluation                    ... done (   0.1 sec)
  promolecular density results
     # of electrons  =     40.000175035
     EX              =    -34.505054983
     EC              =     -1.324995875
     EX+EC           =    -35.830050858
Transforming the Hamiltonian                       ... done (   0.0 sec)
Diagonalizing the Hamiltonian                      ... done (   0.0 sec)
Back transforming the eigenvectors                 ... done (   0.0 sec)
Now organizing SCF variables                       ... done
                      ------------------
                      INITIAL GUESS DONE (   0.3 sec)
                      ------------------
--------------
SCF ITERATIONS
--------------
ITER       Energy         Delta-E        Max-DP      RMS-DP      [F,P]     Damp
               ***  Starting incremental Fock matrix formation  ***
  0   -283.6647956489   0.000000000000 0.15568811  0.00539571  0.2847002 0.7000
  1   -283.7792348423  -0.114439193483 0.09255004  0.00300571  0.0948063 0.7000
                               ***Turning on DIIS***
  2   -283.8072959877  -0.028061145354 0.05465338  0.00344973  0.0347422 0.0000
  3   -283.8729990307  -0.065703043036 0.06864449  0.00211595  0.0564555 0.0000
  4   -283.8801394344  -0.007140403649 0.02069708  0.00070337  0.0422283 0.0000
  5   -283.8827435098  -0.002604075416 0.00605741  0.00019626  0.0088604 0.0000
  6   -283.8828731978  -0.000129687985 0.00259823  0.00008966  0.0041820 0.0000
                      *** Initiating the SOSCF procedure ***
                           *** Shutting down DIIS ***
                      *** Re-Reading the Fockian *** 
                      *** Removing any level shift *** 
ITER      Energy       Delta-E        Grad      Rot      Max-DP    RMS-DP
  7   -283.88289304  -0.0000198431  0.000123  0.000123  0.000637  0.000042
               *** Restarting incremental Fock matrix formation ***
  8   -283.88289423  -0.0000011896  0.000151  0.000524  0.000808  0.000035
  9   -283.88289258   0.0000016493  0.000370  0.000403  0.000580  0.000024
 10   -283.88289470  -0.0000021185  0.000028  0.000066  0.000222  0.000007
 11   -283.88289465   0.0000000451  0.000048  0.000035  0.000142  0.000004
 12   -283.88289473  -0.0000000711  0.000005  0.000023  0.000029  0.000001
 13   -283.88289473   0.0000000005  0.000018  0.000019  0.000023  0.000001
                  ***Gradient check signals convergence***
              ***Rediagonalizing the Fockian in SOSCF/NRSCF***

               *****************************************************
               *                     SUCCESS                       *
               *           SCF CONVERGED AFTER  14 CYCLES          *
               *****************************************************

Setting up the final grid:

General Integration Accuracy     IntAcc      ...  4.670
Radial Grid Type                 RadialGrid  ... Gauss-Chebyshev
Angular Grid (max. acc.)         AngularGrid ... Lebedev-302
Angular grid pruning method      GridPruning ... 3 (G Style)
Weight generation scheme         WeightScheme... Becke
Basis function cutoff            BFCut       ...    1.0000e-11
Integration weight cutoff        WCut        ...    1.0000e-14
Grids for H and He will be reduced by one unit

# of grid points (after initial pruning)     ...  48030 (   0.0 sec)
# of grid points (after weights+screening)   ...  45214 (   0.1 sec)
nearest neighbour list constructed           ...    0.0 sec
Grid point re-assignment to atoms done       ...    0.0 sec
Grid point division into batches done        ...    0.1 sec
Reduced shell lists constructed in    0.4 sec

Total number of grid points                  ...    45214
Total number of batches                      ...      711
Average number of points per batch           ...       63
Average number of grid points per atom       ...     4521
Average number of shells per batch           ...    33.31 (74.03%)
Average number of basis functions per batch  ...    69.67 (73.33%)
Average number of large shells per batch     ...    27.15 (81.49%)
Average number of large basis fcns per batch ...    55.43 (79.56%)
Maximum spatial batch extension              ...  20.99, 21.84, 19.94 au
Average spatial batch extension              ...   2.74,  2.67,  2.75 au

Final grid set up in    0.5 sec
Final integration                            ... done (   0.4 sec)
Change in XC energy                          ...     0.000812304
Integrated number of electrons               ...    40.000093183
Previous integrated no of electrons          ...    40.002652869

----------------
TOTAL SCF ENERGY
----------------

Total Energy       :         -283.88208242 Eh           -7724.82419 eV

Components:
Nuclear Repulsion  :          176.72405668 Eh            4808.90606 eV
Electronic Energy  :         -460.60613910 Eh          -12533.73025 eV
One Electron Energy:         -737.64397106 Eh          -20072.31291 eV
Two Electron Energy:          277.03783196 Eh            7538.58266 eV

Virial components:
Potential Energy   :         -565.32646173 Eh          -15383.31510 eV
Kinetic Energy     :          281.44437931 Eh            7658.49091 eV
Virial Ratio       :            2.00866140


DFT components:
N(Alpha)           :       20.000046591526 electrons
N(Beta)            :       20.000046591526 electrons
N(Total)           :       40.000093183051 electrons
E(X)               :      -35.070288361007 Eh       
E(C)               :       -1.345602723877 Eh       
E(XC)              :      -36.415891084885 Eh       

---------------
SCF CONVERGENCE
---------------

  Last Energy change         ...   -6.4676e-10  Tolerance :   1.0000e-08
  Last MAX-Density change    ...    3.7021e-06  Tolerance :   1.0000e-07
  Last RMS-Density change    ...    1.6196e-07  Tolerance :   5.0000e-09
  Last Orbital Gradient      ...    6.6395e-07  Tolerance :   1.0000e-05
  Last Orbital Rotation      ...    1.3026e-06  Tolerance :   1.0000e-05

             **** THE GBW FILE WAS UPDATED (2-ccc_opt.gbw) ****
             **** DENSITY FILE WAS UPDATED (2-ccc_opt.scfp.tmp) ****
             **** ENERGY FILE WAS UPDATED (2-ccc_opt.en.tmp) ****
----------------
ORBITAL ENERGIES
----------------

  NO   OCC          E(Eh)            E(eV) 
   0   2.0000     -18.782192      -511.0894 
   1   2.0000     -18.731148      -509.7005 
   2   2.0000     -14.006548      -381.1375 
   3   2.0000     -10.008910      -272.3563 
   4   2.0000      -9.947520      -270.6858 
   5   2.0000      -0.953788       -25.9539 
   6   2.0000      -0.884790       -24.0764 
   7   2.0000      -0.833063       -22.6688 
   8   2.0000      -0.637054       -17.3351 
   9   2.0000      -0.526507       -14.3270 
  10   2.0000      -0.504898       -13.7390 
  11   2.0000      -0.455849       -12.4043 
  12   2.0000      -0.420545       -11.4436 
  13   2.0000      -0.389749       -10.6056 
  14   2.0000      -0.355222        -9.6661 
  15   2.0000      -0.328200        -8.9308 
  16   2.0000      -0.317240        -8.6325 
  17   2.0000      -0.252079        -6.8594 
  18   2.0000      -0.241775        -6.5790 
  19   2.0000      -0.202394        -5.5074 
  20   0.0000      -0.039223        -1.0673 
  21   0.0000      -0.001285        -0.0350 
  22   0.0000       0.055076         1.4987 
  23   0.0000       0.071795         1.9536 
  24   0.0000       0.080781         2.1982 
  25   0.0000       0.130371         3.5476 
  26   0.0000       0.144296         3.9265 
  27   0.0000       0.203285         5.5317 
  28   0.0000       0.244498         6.6531 
  29   0.0000       0.294385         8.0106 
  30   0.0000       0.383754        10.4425 
  31   0.0000       0.411263        11.1910 
  32   0.0000       0.420054        11.4302 
  33   0.0000       0.475452        12.9377 
  34   0.0000       0.521839        14.2000 
  35   0.0000       0.524689        14.2775 
  36   0.0000       0.541479        14.7344 
  37   0.0000       0.570775        15.5316 
  38   0.0000       0.590496        16.0682 
  39   0.0000       0.601202        16.3595 
  40   0.0000       0.605733        16.4828 
  41   0.0000       0.631881        17.1943 
  42   0.0000       0.742256        20.1978 
  43   0.0000       0.753602        20.5066 
  44   0.0000       0.803100        21.8535 
  45   0.0000       0.804735        21.8980 
  46   0.0000       0.878901        23.9161 
  47   0.0000       0.924389        25.1539 
  48   0.0000       0.959615        26.1124 
  49   0.0000       0.989948        26.9378 
  50   0.0000       1.039542        28.2874 
  51   0.0000       1.112290        30.2669 
  52   0.0000       1.117643        30.4126 
  53   0.0000       1.201516        32.6949 
  54   0.0000       1.296135        35.2696 
  55   0.0000       1.317770        35.8584 
  56   0.0000       1.341658        36.5084 
  57   0.0000       1.366427        37.1824 
  58   0.0000       1.487121        40.4666 
  59   0.0000       1.549528        42.1648 
  60   0.0000       1.598801        43.5056 
  61   0.0000       1.600215        43.5441 
  62   0.0000       1.633245        44.4429 
  63   0.0000       1.675754        45.5996 
  64   0.0000       1.693425        46.0804 
  65   0.0000       1.724331        46.9214 
  66   0.0000       1.749842        47.6156 
  67   0.0000       1.759173        47.8695 
  68   0.0000       1.832185        49.8563 
  69   0.0000       1.844542        50.1925 
  70   0.0000       1.966202        53.5031 
  71   0.0000       2.087223        56.7962 
  72   0.0000       2.106212        57.3129 
  73   0.0000       2.154423        58.6248 
  74   0.0000       2.169133        59.0251 
  75   0.0000       2.213599        60.2351 
  76   0.0000       2.273496        61.8650 
  77   0.0000       2.341709        63.7211 
  78   0.0000       2.561657        69.7062 
  79   0.0000       2.599266        70.7296 
  80   0.0000       2.642517        71.9065 
  81   0.0000       2.676476        72.8306 
  82   0.0000       2.719209        73.9934 
  83   0.0000       2.745541        74.7100 
  84   0.0000       2.757431        75.0335 
  85   0.0000       2.847867        77.4944 
  86   0.0000       2.888673        78.6048 
  87   0.0000       2.889571        78.6292 
  88   0.0000       3.023458        82.2725 
  89   0.0000       3.170742        86.2803 
  90   0.0000       3.176741        86.4435 
  91   0.0000       3.199519        87.0633 
  92   0.0000       3.300536        89.8121 
  93   0.0000       3.491703        95.0141 
  94   0.0000       3.684643       100.2642 

                    ********************************
                    * MULLIKEN POPULATION ANALYSIS *
                    ********************************

-----------------------
MULLIKEN ATOMIC CHARGES
-----------------------
   0 N :   -0.231948
   1 C :    0.009555
   2 H :    0.117643
   3 H :    0.117643
   4 C :    0.120773
   5 H :    0.061099
   6 H :    0.061099
   7 O :   -0.229228
   8 O :   -0.177796
   9 H :    0.151160
Sum of atomic charges:   -0.0000000

--------------------------------
MULLIKEN REDUCED ORBITAL CHARGES
--------------------------------
  0 N s       :     3.416338  s :     3.416338
      pz      :     1.028820  p :     3.798381
      px      :     1.569699
      py      :     1.199862
      dz2     :     0.002730  d :     0.017229
      dxz     :     0.002425
      dyz     :     0.005075
      dx2y2   :     0.002583
      dxy     :     0.004415
  1 C s       :     2.991047  s :     2.991047
      pz      :     1.069533  p :     2.953237
      px      :     0.969319
      py      :     0.914385
      dz2     :     0.006605  d :     0.046160
      dxz     :     0.008181
      dyz     :     0.005396
      dx2y2   :     0.013176
      dxy     :     0.012802
  2 H s       :     0.835318  s :     0.835318
      pz      :     0.020184  p :     0.047039
      px      :     0.013859
      py      :     0.012996
  3 H s       :     0.835318  s :     0.835318
      pz      :     0.020184  p :     0.047039
      px      :     0.013859
      py      :     0.012996
  4 C s       :     3.120629  s :     3.120629
      pz      :     0.859722  p :     2.649724
      px      :     0.813896
      py      :     0.976106
      dz2     :     0.006258  d :     0.108875
      dxz     :     0.016368
      dyz     :     0.012465
      dx2y2   :     0.044081
      dxy     :     0.029703
  5 H s       :     0.916753  s :     0.916753
      pz      :     0.010889  p :     0.022148
      px      :     0.007638
      py      :     0.003621
  6 H s       :     0.916753  s :     0.916753
      pz      :     0.010889  p :     0.022148
      px      :     0.007638
      py      :     0.003621
  7 O s       :     3.788944  s :     3.788944
      pz      :     1.372251  p :     4.424809
      px      :     1.611845
      py      :     1.440713
      dz2     :     0.001727  d :     0.015474
      dxz     :     0.001325
      dyz     :     0.003544
      dx2y2   :     0.003809
      dxy     :     0.005071
  8 O s       :     3.714558  s :     3.714558
      pz      :     1.753270  p :     4.451827
      px      :     1.295129
      py      :     1.403428
      dz2     :     0.001851  d :     0.011411
      dxz     :     0.001543
      dyz     :     0.000804
      dx2y2   :     0.005054
      dxy     :     0.002158
  9 H s       :     0.777403  s :     0.777403
      pz      :     0.017875  p :     0.071437
      px      :     0.016670
      py      :     0.036893


                     *******************************
                     * LOEWDIN POPULATION ANALYSIS *
                     *******************************

----------------------
LOEWDIN ATOMIC CHARGES
----------------------
   0 N :   -0.090698
   1 C :   -0.025285
   2 H :    0.062767
   3 H :    0.062767
   4 C :    0.086323
   5 H :    0.043747
   6 H :    0.043747
   7 O :   -0.183019
   8 O :   -0.055489
   9 H :    0.055142

-------------------------------
LOEWDIN REDUCED ORBITAL CHARGES
-------------------------------
  0 N s       :     3.103155  s :     3.103155
      pz      :     1.135716  p :     3.946386
      px      :     1.575360
      py      :     1.235310
      dz2     :     0.009257  d :     0.041157
      dxz     :     0.003695
      dyz     :     0.014319
      dx2y2   :     0.004445
      dxy     :     0.009442
  1 C s       :     2.849113  s :     2.849113
      pz      :     1.081924  p :     3.061402
      px      :     1.012966
      py      :     0.966512
      dz2     :     0.019131  d :     0.114770
      dxz     :     0.021904
      dyz     :     0.008002
      dx2y2   :     0.030790
      dxy     :     0.034943
  2 H s       :     0.808549  s :     0.808549
      pz      :     0.053827  p :     0.128684
      px      :     0.040597
      py      :     0.034260
  3 H s       :     0.808549  s :     0.808549
      pz      :     0.053827  p :     0.128684
      px      :     0.040597
      py      :     0.034260
  4 C s       :     2.909666  s :     2.909666
      pz      :     0.837581  p :     2.766162
      px      :     0.891355
      py      :     1.037226
      dz2     :     0.014536  d :     0.237849
      dxz     :     0.029903
      dyz     :     0.022580
      dx2y2   :     0.100889
      dxy     :     0.069941
  5 H s       :     0.888344  s :     0.888344
      pz      :     0.031971  p :     0.067909
      px      :     0.023630
      py      :     0.012308
  6 H s       :     0.888344  s :     0.888344
      pz      :     0.031971  p :     0.067909
      px      :     0.023630
      py      :     0.012308
  7 O s       :     3.589462  s :     3.589462
      pz      :     1.374047  p :     4.566656
      px      :     1.659221
      py      :     1.533389
      dz2     :     0.003907  d :     0.026901
      dxz     :     0.001717
      dyz     :     0.004366
      dx2y2   :     0.006439
      dxy     :     0.010473
  8 O s       :     3.463117  s :     3.463117
      pz      :     1.716848  p :     4.569345
      px      :     1.350335
      py      :     1.502162
      dz2     :     0.004080  d :     0.023027
      dxz     :     0.002368
      dyz     :     0.000295
      dx2y2   :     0.011755
      dxy     :     0.004529
  9 H s       :     0.753102  s :     0.753102
      pz      :     0.047703  p :     0.191756
      px      :     0.041307
      py      :     0.102747


                      *****************************
                      * MAYER POPULATION ANALYSIS *
                      *****************************

  NA   - Mulliken gross atomic population
  ZA   - Total nuclear charge
  QA   - Mulliken gross atomic charge
  VA   - Mayer's total valence
  BVA  - Mayer's bonded valence
  FA   - Mayer's free valence

  ATOM       NA         ZA         QA         VA         BVA        FA
  0 N      7.2319     7.0000    -0.2319     3.1267     3.1267     0.0000
  1 C      5.9904     6.0000     0.0096     3.8868     3.8868    -0.0000
  2 H      0.8824     1.0000     0.1176     0.9983     0.9983     0.0000
  3 H      0.8824     1.0000     0.1176     0.9983     0.9983     0.0000
  4 C      5.8792     6.0000     0.1208     4.2408     4.2408     0.0000
  5 H      0.9389     1.0000     0.0611     0.9901     0.9901    -0.0000
  6 H      0.9389     1.0000     0.0611     0.9901     0.9901    -0.0000
  7 O      8.2292     8.0000    -0.2292     2.2606     2.2606    -0.0000
  8 O      8.1778     8.0000    -0.1778     2.2722     2.2722     0.0000
  9 H      0.8488     1.0000     0.1512     1.0782     1.0782     0.0000

  Mayer bond orders larger than 0.1
B(  0-N ,  1-C ) :   1.0724 B(  0-N ,  2-H ) :   0.9735 B(  0-N ,  3-H ) :   0.9735 
B(  0-N ,  9-H ) :   0.1031 B(  1-C ,  4-C ) :   0.9166 B(  1-C ,  5-H ) :   0.9400 
B(  1-C ,  6-H ) :   0.9400 B(  4-C ,  7-O ) :   2.0608 B(  4-C ,  8-O ) :   1.2056 
B(  7-O ,  8-O ) :   0.1191 B(  8-O ,  9-H ) :   0.9293 

-------
TIMINGS
-------

Total SCF time: 0 days 0 hours 0 min 5 sec 

Total time                  ....       5.409 sec
Sum of individual times     ....       5.374 sec  ( 99.4%)

Fock matrix formation       ....       4.524 sec  ( 83.6%)
  Split-RI-J                ....       2.545 sec  ( 56.3% of F)
  XC integration            ....       1.968 sec  ( 43.5% of F)
    Basis function eval.    ....       0.833 sec  ( 42.3% of XC)
    Density eval.           ....       0.319 sec  ( 16.2% of XC)
    XC-Functional eval.     ....       0.231 sec  ( 11.8% of XC)
    XC-Potential eval.      ....       0.536 sec  ( 27.2% of XC)
Diagonalization             ....       0.017 sec  (  0.3%)
Density matrix formation    ....       0.002 sec  (  0.0%)
Population analysis         ....       0.002 sec  (  0.0%)
Initial guess               ....       0.233 sec  (  4.3%)
Orbital Transformation      ....       0.000 sec  (  0.0%)
Orbital Orthonormalization  ....       0.000 sec  (  0.0%)
DIIS solution               ....       0.004 sec  (  0.1%)
SOSCF solution              ....       0.007 sec  (  0.1%)
Grid generation             ....       0.586 sec  ( 10.8%)

-------------------------   --------------------
FINAL SINGLE POINT ENERGY      -283.882082422328
-------------------------   --------------------

------------------------------------------------------------------------------
                         ORCA SCF GRADIENT CALCULATION
------------------------------------------------------------------------------

Gradient of the Kohn-Sham DFT energy:
Kohn-Sham wavefunction type      ... RKS
Hartree-Fock exchange scaling    ...    0.000
Number of operators              ...    1
Number of atoms                  ...   10
Basis set dimensions             ...   95
Integral neglect threshold       ... 2.5e-11
Integral primitive cutoff        ... 2.5e-12

Nuclear repulsion gradient       ... done
One Electron Gradient            
  ECP gradient                   ... done
Pre-screening matrix             ... done
RI-J gradient                    ... done
Exchange-correlation gradient    ... done

------------------
CARTESIAN GRADIENT
------------------

   1   N   :   -0.007156159   -0.025008647   -0.000000000
   2   C   :   -0.027208044   -0.004472211    0.000000000
   3   H   :   -0.003657772    0.027666491    0.002273212
   4   H   :   -0.003657772    0.027666493   -0.002273212
   5   C   :    0.001873972   -0.074143346   -0.000000000
   6   H   :    0.009991637   -0.006834950    0.004213621
   7   H   :    0.009991637   -0.006834950   -0.004213620
   8   O   :   -0.039812447    0.054813929    0.000000000
   9   O   :    0.057434931   -0.021556977    0.000000000
  10   H   :    0.002200018    0.028704168   -0.000000000

Difference to translation invariance:
           :    0.0000000000   -0.0000000000   -0.0000000000

Norm of the cartesian gradient     ...    0.1342239976
RMS gradient                       ...    0.0245058371
MAX gradient                       ...    0.0741433458

-------
TIMINGS
-------

Total SCF gradient time            ...        2.366 sec

One electron gradient       ....       0.037 sec  (  1.6%)
Prescreening matrices       ....       0.044 sec  (  1.9%)
RI-J Coulomb gradient       ....       0.389 sec  ( 16.5%)
XC gradient                 ....       1.739 sec  ( 73.5%)
------------------------------------------------------------------------------
                         ORCA GEOMETRY RELAXATION STEP
------------------------------------------------------------------------------

Reading the OPT-File                    .... done
Getting information on internals        .... done
Copying old internal coords+grads       .... done
Making the new internal coordinates     .... (new redundants).... done
Validating the new internal coordinates .... (new redundants).... done
Calculating the B-matrix                .... done
Calculating the G,G- and P matrices     .... done
Transforming gradient to internals      .... done
Projecting the internal gradient        .... done
Number of atoms                         ....  10
Number of internal coordinates          ....  36
Current Energy                          ....  -283.882082422 Eh
Current gradient norm                   ....     0.134223998 Eh/bohr
Maximum allowed component of the step   ....  0.300
Current trust radius                    ....  0.300
Evaluating the initial hessian          ....  (Almloef) done
Projecting the Hessian                  .... done
Forming the augmented Hessian           .... done
Diagonalizing the augmented Hessian     .... done
Last element of RFO vector              ....  0.969794215
Lowest eigenvalues of augmented Hessian:
 -0.028111150  0.011030017  0.012460228  0.016750851  0.017319121
Length of the computed step             ....  0.251521956
The final length of the internal step   ....  0.251521956
Converting the step to cartesian space:
 Initial RMS(Int)=    0.0419203260
Transforming coordinates:
 Iter   0:  RMS(Cart)=    0.0881389463 RMS(Int)=    1.4815595178
 Iter   1:  RMS(Cart)=    0.0026646340 RMS(Int)=    0.0020581589
 Iter   2:  RMS(Cart)=    0.0002163322 RMS(Int)=    0.0001564725
 Iter   3:  RMS(Cart)=    0.0000209458 RMS(Int)=    0.0000146104
 Iter   4:  RMS(Cart)=    0.0000019652 RMS(Int)=    0.0000019234
 Iter   5:  RMS(Cart)=    0.0000002188 RMS(Int)=    0.0000001155
 Iter   6:  RMS(Cart)=    0.0000000209 RMS(Int)=    0.0000000211
done
Storing new coordinates                 .... done

                                .--------------------.
          ----------------------|Geometry convergence|-------------------------
          Item                value                   Tolerance       Converged
          ---------------------------------------------------------------------
          RMS gradient        0.0201073413            0.0001000000      NO
          MAX gradient        0.0675646194            0.0003000000      NO
          RMS step            0.0419203260            0.0020000000      NO
          MAX step            0.1170340776            0.0040000000      NO
          ........................................................
          Max(Bonds)      0.0619      Max(Angles)    4.63
          Max(Dihed)        1.77      Max(Improp)    0.00
          ---------------------------------------------------------------------

The optimization has not yet converged - more geometry cycles are needed


    ---------------------------------------------------------------------------
                         Redundant Internal Coordinates
                            (Angstroem and degrees)

        Definition                    Value    dE/dq     Step     New-Value
    ----------------------------------------------------------------------------
     1. B(C   1,N   0)                1.4490 -0.032323  0.0357    1.4847   
     2. B(H   2,N   0)                1.0036 -0.014500  0.0163    1.0199   
     3. B(H   3,N   0)                1.0036 -0.014500  0.0163    1.0199   
     4. B(C   4,C   1)                1.5220 -0.000491  0.0006    1.5226   
     5. B(H   5,C   1)                1.0957 -0.008775  0.0122    1.1078   
     6. B(H   6,C   1)                1.0957 -0.008775  0.0122    1.1078   
     7. B(O   7,C   4)                1.2584  0.067565 -0.0382    1.2202   
     8. B(O   8,C   4)                1.4300  0.059836 -0.0619    1.3680   
     9. B(H   9,O   8)                0.9600 -0.025935  0.0250    0.9850   
    10. A(C   1,N   0,H   3)          105.29 -0.025394    3.86    109.15   
    11. A(H   2,N   0,H   3)          121.44  0.025941   -4.63    116.80   
    12. A(C   1,N   0,H   2)          105.29 -0.025394    3.86    109.15   
    13. A(C   4,C   1,H   5)          108.70  0.007116   -1.47    107.23   
    14. A(N   0,C   1,H   5)          109.62 -0.003803    1.31    110.93   
    15. A(N   0,C   1,H   6)          109.62 -0.003803    1.31    110.93   
    16. A(H   5,C   1,H   6)          109.78  0.002739   -1.53    108.25   
    17. A(C   4,C   1,H   6)          108.70  0.007116   -1.47    107.23   
    18. A(N   0,C   1,C   4)          110.40 -0.009152    1.78    112.19   
    19. A(O   7,C   4,O   8)          120.00 -0.008367    1.16    121.16   
    20. A(C   1,C   4,O   8)          120.00  0.028446   -3.85    116.15   
    21. A(C   1,C   4,O   7)          120.00 -0.020079    2.68    122.68   
    22. A(C   4,O   8,H   9)          109.50  0.022645   -3.39    106.11   
    23. D(H   6,C   1,N   0,H   2)    125.00  0.000014   -0.64    124.36   
    24. D(H   5,C   1,N   0,H   3)   -125.00 -0.000014    0.64   -124.36   
    25. D(H   6,C   1,N   0,H   3)     -4.44 -0.001390    0.39     -4.05   
    26. D(H   5,C   1,N   0,H   2)      4.44  0.001390   -0.39      4.05   
    27. D(C   4,C   1,N   0,H   2)   -115.28  0.000702   -0.52   -115.80   
    28. D(C   4,C   1,N   0,H   3)    115.28 -0.000702    0.52    115.80   
    29. D(O   7,C   4,C   1,N   0)    180.00 -0.000000    0.00    180.00   
    30. D(O   8,C   4,C   1,H   6)    120.27 -0.005776    1.77    122.05   
    31. D(O   8,C   4,C   1,H   5)   -120.27  0.005776   -1.77   -122.05   
    32. D(O   8,C   4,C   1,N   0)      0.00 -0.000000    0.00      0.00   
    33. D(O   7,C   4,C   1,H   6)    -59.73 -0.005776    1.77    -57.95   
    34. D(O   7,C   4,C   1,H   5)     59.73  0.005776   -1.77     57.95   
    35. D(H   9,O   8,C   4,O   7)    180.00 -0.000000    0.00    180.00   
    36. D(H   9,O   8,C   4,C   1)      0.00  0.000000   -0.00     -0.00   
    ----------------------------------------------------------------------------

         *************************************************************
         *                GEOMETRY OPTIMIZATION CYCLE   2            *
         *************************************************************
---------------------------------
CARTESIAN COORDINATES (ANGSTROEM)
---------------------------------
  N      0.204842   -1.793911    0.000000
  C     -0.767337   -0.671742    0.000000
  H      0.106597   -2.320239   -0.868069
  H      0.106597   -2.320239    0.868069
  C     -0.078102    0.685930    0.000000
  H     -1.415864   -0.709751   -0.897380
  H     -1.415864   -0.709751    0.897380
  O     -0.695558    1.738339    0.000000
  O      1.289824    0.667750   -0.000000
  H      1.550554   -0.282137   -0.000000

----------------------------
CARTESIAN COORDINATES (A.U.)
----------------------------
  NO LB      ZA    FRAG     MASS         X           Y           Z
   0 N     7.0000    0    14.007    0.387095   -3.390001    0.000000
   1 C     6.0000    0    12.011   -1.450057   -1.269409    0.000000
   2 H     1.0000    0     1.008    0.201440   -4.384616   -1.640413
   3 H     1.0000    0     1.008    0.201440   -4.384616    1.640413
   4 C     6.0000    0    12.011   -0.147591    1.296220    0.000000
   5 H     1.0000    0     1.008   -2.675594   -1.341235   -1.695802
   6 H     1.0000    0     1.008   -2.675594   -1.341235    1.695802
   7 O     8.0000    0    15.999   -1.314414    3.284984    0.000000
   8 O     8.0000    0    15.999    2.437414    1.261865   -0.000000
   9 H     1.0000    0     1.008    2.930122   -0.533161   -0.000000

--------------------------------
INTERNAL COORDINATES (ANGSTROEM)
--------------------------------
 N      0   0   0     0.000000000000     0.00000000     0.00000000
 C      1   0   0     1.484720387319     0.00000000     0.00000000
 H      1   2   0     1.019909983325   109.08466700     0.00000000
 H      1   2   3     1.019909984628   109.08466736   231.51938908
 C      2   1   3     1.522602975545   112.18128016   244.24030567
 H      2   1   3     1.107845489710   110.93933715     4.09397790
 H      2   1   3     1.107845488854   110.93933713   124.38663336
 O      5   2   1     1.220170362645   122.68449873   180.00000085
 O      5   2   1     1.368046572817   116.15362405     0.00000000
 H      9   5   2     0.985020391500   106.11024330     0.00000000

---------------------------
INTERNAL COORDINATES (A.U.)
---------------------------
 N      0   0   0     0.000000000000     0.00000000     0.00000000
 C      1   0   0     2.805714917483     0.00000000     0.00000000
 H      1   2   0     1.927350549737   109.08466700     0.00000000
 H      1   2   3     1.927350552198   109.08466736   231.51938908
 C      2   1   3     2.877302634473   112.18128016   244.24030567
 H      2   1   3     2.093524574251   110.93933715     4.09397790
 H      2   1   3     2.093524572633   110.93933713   124.38663336
 O      5   2   1     2.305787822126   122.68449873   180.00000085
 O      5   2   1     2.585233361074   116.15362405     0.00000000
 H      9   5   2     1.861418776262   106.11024330     0.00000000

 One Electron integrals                  ... done
 Pre-screening matrix                    ... done

Diagonalization of the overlap matrix:
Smallest eigenvalue                        ... 2.500e-03
Time for diagonalization                   ...    0.002 sec
Threshold for overlap eigenvalues          ... 1.000e-08
Number of eigenvalues below threshold      ... 0
Time for construction of square roots      ...    0.001 sec
Total time needed                          ...    0.003 sec

-------------------
DFT GRID GENERATION
-------------------

General Integration Accuracy     IntAcc      ...  4.340
Radial Grid Type                 RadialGrid  ... Gauss-Chebyshev
Angular Grid (max. acc.)         AngularGrid ... Lebedev-110
Angular grid pruning method      GridPruning ... 3 (G Style)
Weight generation scheme         WeightScheme... Becke
Basis function cutoff            BFCut       ...    1.0000e-11
Integration weight cutoff        WCut        ...    1.0000e-14
Grids for H and He will be reduced by one unit

# of grid points (after initial pruning)     ...  12416 (   0.0 sec)
# of grid points (after weights+screening)   ...  11783 (   0.0 sec)
nearest neighbour list constructed           ...    0.0 sec
Grid point re-assignment to atoms done       ...    0.0 sec
Grid point division into batches done        ...    0.0 sec
Reduced shell lists constructed in    0.1 sec

Total number of grid points                  ...    11783
Total number of batches                      ...      188
Average number of points per batch           ...       62
Average number of grid points per atom       ...     1178
Average number of shells per batch           ...    36.17 (80.39%)
Average number of basis functions per batch  ...    76.28 (80.30%)
Average number of large shells per batch     ...    30.22 (83.55%)
Average number of large basis fcns per batch ...    62.21 (81.56%)
Maximum spatial batch extension              ...  21.59, 18.37, 20.95 au
Average spatial batch extension              ...   4.14,  4.11,  4.13 au

Time for grid setup =    0.101 sec

--------------
SCF ITERATIONS
--------------
ITER       Energy         Delta-E        Max-DP      RMS-DP      [F,P]     Damp
               ***  Starting incremental Fock matrix formation  ***
  0   -283.8950642634   0.000000000000 0.01212664  0.00053013  0.0291412 0.7000
                      *** Initiating the SOSCF procedure ***
                      *** Re-Reading the Fockian *** 
                      *** Removing any level shift *** 
ITER      Energy       Delta-E        Grad      Rot      Max-DP    RMS-DP
  1   -283.89696580  -0.0019015411  0.002174  0.002174  0.034820  0.001578
               *** Restarting incremental Fock matrix formation ***
  2   -283.90129953  -0.0043337257  0.002925  0.010014  0.017043  0.000708
  3   -283.90099176   0.0003077743  0.008325  0.011268  0.011823  0.000396
  4   -283.90139509  -0.0004033324  0.002275  0.003806  0.012272  0.000329
  5   -283.90131134   0.0000837507  0.002771  0.002635  0.008108  0.000212
  6   -283.90144808  -0.0001367463  0.000330  0.000732  0.001638  0.000052
  7   -283.90144566   0.0000024231  0.000642  0.000510  0.001115  0.000035
  8   -283.90144908  -0.0000034171  0.000049  0.000096  0.000297  0.000010
  9   -283.90144901   0.0000000666  0.000082  0.000062  0.000172  0.000006
 10   -283.90144913  -0.0000001217  0.000006  0.000010  0.000028  0.000001
                 **** Energy Check signals convergence ****
              ***Rediagonalizing the Fockian in SOSCF/NRSCF***

               *****************************************************
               *                     SUCCESS                       *
               *           SCF CONVERGED AFTER  11 CYCLES          *
               *****************************************************

Setting up the final grid:

General Integration Accuracy     IntAcc      ...  4.670
Radial Grid Type                 RadialGrid  ... Gauss-Chebyshev
Angular Grid (max. acc.)         AngularGrid ... Lebedev-302
Angular grid pruning method      GridPruning ... 3 (G Style)
Weight generation scheme         WeightScheme... Becke
Basis function cutoff            BFCut       ...    1.0000e-11
Integration weight cutoff        WCut        ...    1.0000e-14
Grids for H and He will be reduced by one unit

# of grid points (after initial pruning)     ...  48030 (   0.0 sec)
# of grid points (after weights+screening)   ...  45190 (   0.1 sec)
nearest neighbour list constructed           ...    0.0 sec
Grid point re-assignment to atoms done       ...    0.0 sec
Grid point division into batches done        ...    0.1 sec
Reduced shell lists constructed in    0.4 sec

Total number of grid points                  ...    45190
Total number of batches                      ...      711
Average number of points per batch           ...       63
Average number of grid points per atom       ...     4519
Average number of shells per batch           ...    33.43 (74.30%)
Average number of basis functions per batch  ...    70.08 (73.77%)
Average number of large shells per batch     ...    27.27 (81.58%)
Average number of large basis fcns per batch ...    55.68 (79.44%)
Maximum spatial batch extension              ...  20.78, 21.88, 19.99 au
Average spatial batch extension              ...   2.75,  2.63,  2.71 au

Final grid set up in    0.5 sec
Final integration                            ... done (   0.4 sec)
Change in XC energy                          ...     0.000648238
Integrated number of electrons               ...    40.000031357
Previous integrated no of electrons          ...    40.002136936
Total Energy       :         -283.90080089 Eh           -7725.33354 eV
  Last Energy change         ...    6.5859e-10  Tolerance :   1.0000e-08
  Last MAX-Density change    ...    1.7543e-05  Tolerance :   1.0000e-07
             **** THE GBW FILE WAS UPDATED (2-ccc_opt.gbw) ****
             **** DENSITY FILE WAS UPDATED (2-ccc_opt.scfp.tmp) ****
             **** ENERGY FILE WAS UPDATED (2-ccc_opt.en.tmp) ****
Total SCF time: 0 days 0 hours 0 min 4 sec 

-------------------------   --------------------
FINAL SINGLE POINT ENERGY      -283.900800893777
-------------------------   --------------------

------------------------------------------------------------------------------
                         ORCA SCF GRADIENT CALCULATION
------------------------------------------------------------------------------

Gradient of the Kohn-Sham DFT energy:
Kohn-Sham wavefunction type      ... RKS
Hartree-Fock exchange scaling    ...    0.000
Number of operators              ...    1
Number of atoms                  ...   10
Basis set dimensions             ...   95
Integral neglect threshold       ... 2.5e-11
Integral primitive cutoff        ... 2.5e-12

Nuclear repulsion gradient       ... done
One Electron Gradient            
  ECP gradient                   ... done
Pre-screening matrix             ... done
RI-J gradient                    ... done
Exchange-correlation gradient    ... done

------------------
CARTESIAN GRADIENT
------------------

   1   N   :    0.003474355   -0.026462123   -0.000000000
   2   C   :   -0.013187019    0.012846689   -0.000000000
   3   H   :   -0.001073248    0.011751692   -0.005697178
   4   H   :   -0.001073247    0.011751691    0.005697179
   5   C   :   -0.012007488   -0.025498479    0.000000001
   6   H   :    0.003494156   -0.001886929   -0.001035777
   7   H   :    0.003494157   -0.001886929    0.001035777
   8   O   :   -0.003249721    0.011931605   -0.000000001
   9   O   :    0.016262038   -0.002853756    0.000000000
  10   H   :    0.003866018    0.010306539    0.000000000

Difference to translation invariance:
           :   -0.0000000000   -0.0000000000   -0.0000000000

Norm of the cartesian gradient     ...    0.0526251231
RMS gradient                       ...    0.0096079890
MAX gradient                       ...    0.0264621227

-------
TIMINGS
-------

Total SCF gradient time            ...        2.626 sec

One electron gradient       ....       0.041 sec  (  1.6%)
Prescreening matrices       ....       0.047 sec  (  1.8%)
RI-J Coulomb gradient       ....       0.394 sec  ( 15.0%)
XC gradient                 ....       1.967 sec  ( 74.9%)
------------------------------------------------------------------------------
                         ORCA GEOMETRY RELAXATION STEP
------------------------------------------------------------------------------

Reading the OPT-File                    .... done
Getting information on internals        .... done
Copying old internal coords+grads       .... done
Making the new internal coordinates     .... (new redundants).... done
Validating the new internal coordinates .... (new redundants).... done
Calculating the B-matrix                .... done
Calculating the G,G- and P matrices     .... done
Transforming gradient to internals      .... done
Projecting the internal gradient        .... done
Number of atoms                         ....  10
Number of internal coordinates          ....  36
Current Energy                          ....  -283.900800894 Eh
Current gradient norm                   ....     0.052625123 Eh/bohr
Maximum allowed component of the step   ....  0.300
Current trust radius                    ....  0.300
Updating the Hessian (BFGS)             .... done
Forming the augmented Hessian           .... done
Diagonalizing the augmented Hessian     .... done
Last element of RFO vector              ....  0.981918788
Lowest eigenvalues of augmented Hessian:
 -0.007738491  0.011030017  0.012460228  0.016750851  0.017319121
Length of the computed step             ....  0.192788501
The final length of the internal step   ....  0.192788501
Converting the step to cartesian space:
 Initial RMS(Int)=    0.0321314168
Transforming coordinates:
 Iter   0:  RMS(Cart)=    0.0788974842 RMS(Int)=    0.0324825250
 Iter   1:  RMS(Cart)=    0.0031012320 RMS(Int)=    0.0025013885
 Iter   2:  RMS(Cart)=    0.0003163260 RMS(Int)=    0.0001893662
 Iter   3:  RMS(Cart)=    0.0000328841 RMS(Int)=    0.0000242561
 Iter   4:  RMS(Cart)=    0.0000036509 RMS(Int)=    0.0000031161
 Iter   5:  RMS(Cart)=    0.0000004250 RMS(Int)=    0.0000002603
 Iter   6:  RMS(Cart)=    0.0000000474 RMS(Int)=    0.0000000469
done
Storing new coordinates                 .... done

                                .--------------------.
          ----------------------|Geometry convergence|-------------------------
          Item                value                   Tolerance       Converged
          ---------------------------------------------------------------------
          Energy change      -0.0187184714            0.0000050000      NO
          RMS gradient        0.0072114062            0.0001000000      NO
          MAX gradient        0.0200293422            0.0003000000      NO
          RMS step            0.0321314168            0.0020000000      NO
          MAX step            0.0908425268            0.0040000000      NO
          ........................................................
          Max(Bonds)      0.0375      Max(Angles)    5.20
          Max(Dihed)        1.58      Max(Improp)    0.00
          ---------------------------------------------------------------------

The optimization has not yet converged - more geometry cycles are needed


    ---------------------------------------------------------------------------
                         Redundant Internal Coordinates
                            (Angstroem and degrees)

        Definition                    Value    dE/dq     Step     New-Value
    ----------------------------------------------------------------------------
     1. B(C   1,N   0)                1.4847  0.003102 -0.0017    1.4830   
     2. B(H   2,N   0)                1.0199 -0.001112  0.0035    1.0234   
     3. B(H   3,N   0)                1.0199 -0.001112  0.0035    1.0234   
     4. B(C   4,C   1)                1.5226 -0.003247  0.0064    1.5290   
     5. B(H   5,C   1)                1.1078 -0.001142  0.0035    1.1114   
     6. B(H   6,C   1)                1.1078 -0.001142  0.0035    1.1114   
     7. B(O   7,C   4)                1.2202  0.011935 -0.0143    1.2059   
     8. B(O   8,C   4)                1.3680  0.020029 -0.0375    1.3305   
     9. B(H   9,O   8)                0.9850 -0.008913  0.0155    1.0005   
    10. A(C   1,N   0,H   3)          109.08 -0.010731    2.46    111.55   
    11. A(H   2,N   0,H   3)          116.67  0.014402   -5.20    111.46   
    12. A(C   1,N   0,H   2)          109.08 -0.010731    2.46    111.55   
    13. A(C   4,C   1,H   5)          107.19 -0.000463   -0.23    106.97   
    14. A(N   0,C   1,H   5)          110.94 -0.003475    1.22    112.16   
    15. A(N   0,C   1,H   6)          110.94 -0.003475    1.22    112.16   
    16. A(H   5,C   1,H   6)          108.20  0.002964   -1.25    106.94   
    17. A(C   4,C   1,H   6)          107.19 -0.000463   -0.23    106.97   
    18. A(N   0,C   1,C   4)          112.18  0.005085   -0.85    111.33   
    19. A(O   7,C   4,O   8)          121.16 -0.013143    2.72    123.88   
    20. A(C   1,C   4,O   8)          116.15  0.018820   -4.23    111.93   
    21. A(C   1,C   4,O   7)          122.68 -0.005677    1.51    124.19   
    22. A(C   4,O   8,H   9)          106.11  0.012017   -3.06    103.05   
    23. D(H   6,C   1,N   0,H   2)    124.39  0.001063   -1.57    122.81   
    24. D(H   5,C   1,N   0,H   3)   -124.39 -0.001063    1.57   -122.81   
    25. D(H   6,C   1,N   0,H   3)     -4.09 -0.001958    1.58     -2.52   
    26. D(H   5,C   1,N   0,H   2)      4.09  0.001958   -1.58      2.52   
    27. D(C   4,C   1,N   0,H   2)   -115.76  0.001510   -1.57   -117.33   
    28. D(C   4,C   1,N   0,H   3)    115.76 -0.001510    1.57    117.33   
    29. D(O   7,C   4,C   1,N   0)   -180.00 -0.000000    0.00   -180.00   
    30. D(O   8,C   4,C   1,H   6)    122.02 -0.001487    0.84    122.85   
    31. D(O   8,C   4,C   1,H   5)   -122.02  0.001487   -0.84   -122.85   
    32. D(O   8,C   4,C   1,N   0)      0.00 -0.000000    0.00      0.00   
    33. D(O   7,C   4,C   1,H   6)    -57.98 -0.001487    0.84    -57.15   
    34. D(O   7,C   4,C   1,H   5)     57.98  0.001487   -0.84     57.15   
    35. D(H   9,O   8,C   4,O   7)   -180.00 -0.000000    0.00   -180.00   
    36. D(H   9,O   8,C   4,C   1)     -0.00 -0.000000    0.00      0.00   
    ----------------------------------------------------------------------------

         *************************************************************
         *                GEOMETRY OPTIMIZATION CYCLE   3            *
         *************************************************************
---------------------------------
CARTESIAN COORDINATES (ANGSTROEM)
---------------------------------
  N      0.240613   -1.751660    0.000000
  C     -0.757198   -0.654559   -0.000000
  H      0.170078   -2.323673   -0.845658
  H      0.170078   -2.323673    0.845658
  C     -0.078003    0.715333    0.000000
  H     -1.418000   -0.689126   -0.892908
  H     -1.418000   -0.689126    0.892908
  O     -0.670586    1.765539    0.000000
  O      1.248522    0.612240   -0.000000
  H      1.398187   -0.377045   -0.000000

----------------------------
CARTESIAN COORDINATES (A.U.)
----------------------------
  NO LB      ZA    FRAG     MASS         X           Y           Z
   0 N     7.0000    0    14.007    0.454693   -3.310158    0.000000
   1 C     6.0000    0    12.011   -1.430897   -1.236937   -0.000000
   2 H     1.0000    0     1.008    0.321400   -4.391106   -1.598062
   3 H     1.0000    0     1.008    0.321400   -4.391106    1.598063
   4 C     6.0000    0    12.011   -0.147404    1.351783    0.000000
   5 H     1.0000    0     1.008   -2.679631   -1.302259   -1.687352
   6 H     1.0000    0     1.008   -2.679632   -1.302259    1.687352
   7 O     8.0000    0    15.999   -1.267225    3.336385    0.000000
   8 O     8.0000    0    15.999    2.359364    1.156967   -0.000000
   9 H     1.0000    0     1.008    2.642191   -0.712512   -0.000000

--------------------------------
INTERNAL COORDINATES (ANGSTROEM)
--------------------------------
 N      0   0   0     0.000000000000     0.00000000     0.00000000
 C      1   0   0     1.482989648246     0.00000000     0.00000000
 H      1   2   0     1.023382572037   111.53849521     0.00000000
 H      1   2   3     1.023382571676   111.53849505   234.66166537
 C      2   1   3     1.529022475775   111.34124027   242.66916779
 H      2   1   3     1.111367916571   112.15101250     2.50487697
 H      2   1   3     1.111367918117   112.15101231   122.83345823
 O      5   2   1     1.205855585128   124.19362147   180.00000191
 O      5   2   1     1.330524597403   111.92842996     0.00000000
 H      9   5   2     1.000542432739   103.04671767     0.00000000

---------------------------
INTERNAL COORDINATES (A.U.)
---------------------------
 N      0   0   0     0.000000000000     0.00000000     0.00000000
 C      1   0   0     2.802444294625     0.00000000     0.00000000
 H      1   2   0     1.933912791378   111.53849521     0.00000000
 H      1   2   3     1.933912790695   111.53849505   234.66166537
 C      2   1   3     2.889433731824   111.34124027   242.66916779
 H      2   1   3     2.100180996346   112.15101250     2.50487697
 H      2   1   3     2.100180999267   112.15101231   122.83345823
 O      5   2   1     2.278736812952   124.19362147   180.00000191
 O      5   2   1     2.514327103537   111.92842996     0.00000000
 H      9   5   2     1.890751183244   103.04671767     0.00000000

 One Electron integrals                  ... done
 Pre-screening matrix                    ... done

Diagonalization of the overlap matrix:
Smallest eigenvalue                        ... 2.467e-03
Time for diagonalization                   ...    0.002 sec
Threshold for overlap eigenvalues          ... 1.000e-08
Number of eigenvalues below threshold      ... 0
Time for construction of square roots      ...    0.001 sec
Total time needed                          ...    0.002 sec

-------------------
DFT GRID GENERATION
-------------------

General Integration Accuracy     IntAcc      ...  4.340
Radial Grid Type                 RadialGrid  ... Gauss-Chebyshev
Angular Grid (max. acc.)         AngularGrid ... Lebedev-110
Angular grid pruning method      GridPruning ... 3 (G Style)
Weight generation scheme         WeightScheme... Becke
Basis function cutoff            BFCut       ...    1.0000e-11
Integration weight cutoff        WCut        ...    1.0000e-14
Grids for H and He will be reduced by one unit

# of grid points (after initial pruning)     ...  12416 (   0.0 sec)
# of grid points (after weights+screening)   ...  11766 (   0.0 sec)
nearest neighbour list constructed           ...    0.0 sec
Grid point re-assignment to atoms done       ...    0.0 sec
Grid point division into batches done        ...    0.0 sec
Reduced shell lists constructed in    0.1 sec

Total number of grid points                  ...    11766
Total number of batches                      ...      188
Average number of points per batch           ...       62
Average number of grid points per atom       ...     1177
Average number of shells per batch           ...    36.38 (80.83%)
Average number of basis functions per batch  ...    76.82 (80.86%)
Average number of large shells per batch     ...    30.52 (83.90%)
Average number of large basis fcns per batch ...    62.86 (81.82%)
Maximum spatial batch extension              ...  21.59, 18.39, 20.95 au
Average spatial batch extension              ...   4.33,  4.14,  4.16 au

Time for grid setup =    0.099 sec

--------------
SCF ITERATIONS
--------------
ITER       Energy         Delta-E        Max-DP      RMS-DP      [F,P]     Damp
               ***  Starting incremental Fock matrix formation  ***
  0   -283.8993889487   0.000000000000 0.01319127  0.00047612  0.0360298 0.7000
                      *** Initiating the SOSCF procedure ***
                      *** Re-Reading the Fockian *** 
                      *** Removing any level shift *** 
ITER      Energy       Delta-E        Grad      Rot      Max-DP    RMS-DP
  1   -283.90111414  -0.0017251893  0.002243  0.002243  0.038267  0.001464
               *** Restarting incremental Fock matrix formation ***
  2   -283.90525090  -0.0041367649  0.001873  0.007780  0.011056  0.000483
  3   -283.90505167   0.0001992357  0.006837  0.008223  0.008374  0.000278
  4   -283.90531568  -0.0002640130  0.001066  0.002021  0.004830  0.000177
  5   -283.90528940   0.0000262798  0.001510  0.001205  0.002717  0.000105
  6   -283.90533063  -0.0000412290  0.000329  0.000585  0.002174  0.000064
  7   -283.90532914   0.0000014907  0.000535  0.000374  0.001340  0.000039
  8   -283.90533177  -0.0000026352  0.000050  0.000084  0.000192  0.000008
  9   -283.90533171   0.0000000617  0.000088  0.000060  0.000125  0.000005
 10   -283.90533181  -0.0000000956  0.000005  0.000007  0.000028  0.000001
 11   -283.90533181  -0.0000000021  0.000005  0.000004  0.000010  0.000001
                  ***Gradient check signals convergence***
              ***Rediagonalizing the Fockian in SOSCF/NRSCF***

               *****************************************************
               *                     SUCCESS                       *
               *           SCF CONVERGED AFTER  12 CYCLES          *
               *****************************************************

Setting up the final grid:

General Integration Accuracy     IntAcc      ...  4.670
Radial Grid Type                 RadialGrid  ... Gauss-Chebyshev
Angular Grid (max. acc.)         AngularGrid ... Lebedev-302
Angular grid pruning method      GridPruning ... 3 (G Style)
Weight generation scheme         WeightScheme... Becke
Basis function cutoff            BFCut       ...    1.0000e-11
Integration weight cutoff        WCut        ...    1.0000e-14
Grids for H and He will be reduced by one unit

# of grid points (after initial pruning)     ...  48030 (   0.0 sec)
# of grid points (after weights+screening)   ...  45144 (   0.1 sec)
nearest neighbour list constructed           ...    0.0 sec
Grid point re-assignment to atoms done       ...    0.0 sec
Grid point division into batches done        ...    0.1 sec
Reduced shell lists constructed in    0.4 sec

Total number of grid points                  ...    45144
Total number of batches                      ...      711
Average number of points per batch           ...       63
Average number of grid points per atom       ...     4514
Average number of shells per batch           ...    33.46 (74.34%)
Average number of basis functions per batch  ...    70.25 (73.94%)
Average number of large shells per batch     ...    27.46 (82.07%)
Average number of large basis fcns per batch ...    56.18 (79.98%)
Maximum spatial batch extension              ...  20.86, 21.89, 19.31 au
Average spatial batch extension              ...   2.74,  2.61,  2.70 au

Final grid set up in    0.5 sec
Final integration                            ... done (   0.4 sec)
Change in XC energy                          ...     0.000484671
Integrated number of electrons               ...    39.999934800
Previous integrated no of electrons          ...    40.001401318
Total Energy       :         -283.90484714 Eh           -7725.44364 eV
  Last Energy change         ...   -5.5917e-10  Tolerance :   1.0000e-08
  Last MAX-Density change    ...    5.1996e-06  Tolerance :   1.0000e-07
             **** THE GBW FILE WAS UPDATED (2-ccc_opt.gbw) ****
             **** DENSITY FILE WAS UPDATED (2-ccc_opt.scfp.tmp) ****
             **** ENERGY FILE WAS UPDATED (2-ccc_opt.en.tmp) ****
Total SCF time: 0 days 0 hours 0 min 4 sec 

-------------------------   --------------------
FINAL SINGLE POINT ENERGY      -283.904847139684
-------------------------   --------------------

------------------------------------------------------------------------------
                         ORCA SCF GRADIENT CALCULATION
------------------------------------------------------------------------------

Gradient of the Kohn-Sham DFT energy:
Kohn-Sham wavefunction type      ... RKS
Hartree-Fock exchange scaling    ...    0.000
Number of operators              ...    1
Number of atoms                  ...   10
Basis set dimensions             ...   95
Integral neglect threshold       ... 2.5e-11
Integral primitive cutoff        ... 2.5e-12

Nuclear repulsion gradient       ... done
One Electron Gradient            
  ECP gradient                   ... done
Pre-screening matrix             ... done
RI-J gradient                    ... done
Exchange-correlation gradient    ... done

------------------
CARTESIAN GRADIENT
------------------

   1   N   :    0.003967389   -0.013795535    0.000000002
   2   C   :    0.002255843    0.010890620   -0.000000001
   3   H   :    0.000139548    0.004400801   -0.002803600
   4   H   :    0.000139547    0.004400803    0.002803598
   5   C   :   -0.007233804    0.001256001    0.000000000
   6   H   :    0.000860082    0.000578435   -0.001680223
   7   H   :    0.000860081    0.000578437    0.001680223
   8   O   :    0.010354064   -0.009448523    0.000000000
   9   O   :   -0.010362704   -0.004789660    0.000000001
  10   H   :   -0.000980046    0.005928621   -0.000000003

Difference to translation invariance:
           :   -0.0000000000   -0.0000000000   -0.0000000000

Norm of the cartesian gradient     ...    0.0284404989
RMS gradient                       ...    0.0051925009
MAX gradient                       ...    0.0137955355

-------
TIMINGS
-------

Total SCF gradient time            ...        2.351 sec

One electron gradient       ....       0.036 sec  (  1.5%)
Prescreening matrices       ....       0.042 sec  (  1.8%)
RI-J Coulomb gradient       ....       0.396 sec  ( 16.8%)
XC gradient                 ....       1.730 sec  ( 73.6%)
------------------------------------------------------------------------------
                         ORCA GEOMETRY RELAXATION STEP
------------------------------------------------------------------------------

Reading the OPT-File                    .... done
Getting information on internals        .... done
Copying old internal coords+grads       .... done
Making the new internal coordinates     .... (new redundants).... done
Validating the new internal coordinates .... (new redundants).... done
Calculating the B-matrix                .... done
Calculating the G,G- and P matrices     .... done
Transforming gradient to internals      .... done
[...]
     13       0.000000   0.000000   0.000000   0.000000   0.000000   0.000000
     14       0.000000   0.000000   0.000000   0.000000   0.000000   0.000000
     15       0.000000   0.000000   0.000000   0.000000   0.000000   0.000000
     16       0.000000   0.000000   0.000000   0.000000   0.000000   0.000000
     17       0.000000   0.000000   0.000000   0.000000   0.000000   0.000000
     18       0.000000   0.000000   0.000000   0.000000   0.000000   0.000000
     19       0.000000   0.000000   0.000000   0.000000   0.000000   0.000000
     20       0.000000   0.000000   0.000000   0.000000   0.000000   0.000000
     21       0.000000   0.000000   0.000000   0.000000   0.000000   0.000000
     22       0.000000   0.000000   0.000000   0.000000   0.000000   0.000000
     23       0.000000   0.000000   0.000000   0.000000   0.000000   0.000000
     24       0.000000   0.000000   0.000000   0.000000   0.000000   0.000000
     25       0.000000   0.000000   0.000000   0.000000   0.000000   0.000000
     26       0.000000   0.000000   0.000000   0.000000   0.000000   0.000000
     27       0.000000   0.000000   0.000000   0.000000   0.000000   0.000000
     28       0.000000   0.000000   0.000000   0.000000   0.000000   0.000000
     29       0.000000   0.000000   0.000000   0.000000   0.000000   0.000000
                  6          7          8          9         10         11    
      0       0.000001  -0.000017   0.203263   0.051084  -0.000001   0.058219
      1      -0.000002  -0.000019   0.214631  -0.335460  -0.000000  -0.188232
      2       0.076597  -0.127000  -0.000024   0.000004   0.035461  -0.000000
      3      -0.000001   0.000009  -0.102106   0.019824   0.000006   0.280794
      4       0.000000   0.000001  -0.029403  -0.260982   0.000007   0.142470
      5      -0.135118   0.069717   0.000018  -0.000005  -0.093313   0.000003
      6      -0.174340  -0.526965   0.418076   0.002486   0.039562  -0.269376
      7      -0.342464  -0.362269   0.197231  -0.326715  -0.120092  -0.169684
      8       0.343946   0.187237  -0.008189  -0.002345   0.119439   0.009478
      9       0.174342   0.526896   0.418294   0.002459  -0.039567  -0.269376
     10       0.342461   0.362233   0.197393  -0.326723   0.120094  -0.169707
     11       0.343933   0.187204   0.008270   0.002346   0.119441  -0.009479
     12       0.000000   0.000006  -0.090220  -0.155726   0.000005   0.028134
     13       0.000001  -0.000002   0.004698   0.094462   0.000000   0.230986
     14       0.003339   0.016631   0.000004  -0.000012  -0.297420   0.000016
     15       0.284398  -0.062325  -0.067678   0.009194  -0.479388   0.268350
     16      -0.019400   0.007774  -0.191142  -0.381073  -0.314797   0.167345
     17      -0.346502   0.122261  -0.015194   0.010035   0.282525   0.013420
     18      -0.284409   0.062340  -0.067642   0.009240   0.479416   0.268322
     19       0.019402  -0.007749  -0.191131  -0.381043   0.314825   0.167319
     20      -0.346492   0.122257   0.015258  -0.010009   0.282506  -0.013436
     21      -0.000001  -0.000003   0.089238   0.230916  -0.000008  -0.232453
     22       0.000001  -0.000008   0.116832   0.337318  -0.000002   0.131922
     23       0.110425  -0.071485  -0.000017   0.000008   0.126130  -0.000010
     24       0.000001   0.000009  -0.142518  -0.178489   0.000001  -0.023854
     25       0.000000   0.000025  -0.265164   0.156118  -0.000004  -0.226793
     26      -0.068387   0.091392   0.000021  -0.000004   0.086403   0.000003
     27       0.000004   0.000043  -0.388197   0.054008  -0.000024  -0.419905
     28      -0.000005   0.000019  -0.346105   0.229412  -0.000018  -0.323819
     29      -0.156242  -0.199047  -0.000132   0.000067  -0.014149  -0.000086
                 12         13         14         15         16         17    
      0       0.128976   0.000097   0.150250   0.000009  -0.161602  -0.000007
      1       0.040612   0.000011   0.014286  -0.000010   0.195276   0.000006
      2      -0.000005  -0.009861   0.000008   0.044478   0.000011  -0.032415
      3       0.049229  -0.000163  -0.237318  -0.000015   0.225158   0.000006
      4       0.085548  -0.000076  -0.107733   0.000004  -0.207621  -0.000010
      5      -0.000004  -0.138163   0.000180  -0.027281  -0.000011   0.090871
      6      -0.654035   0.285788  -0.525438   0.072382  -0.330154   0.345817
      7      -0.048715  -0.297346  -0.120146   0.120465   0.213015  -0.233022
      8       0.110091   0.179814   0.126002  -0.050563   0.018654   0.102413
      9      -0.654059  -0.286461  -0.524723  -0.072457  -0.330114  -0.345854
     10      -0.048695   0.297188  -0.120895  -0.120495   0.212945   0.233030
     11      -0.110048   0.179658  -0.126429  -0.050567  -0.018671   0.102422
     12      -0.056928   0.000020   0.033080   0.000016  -0.051576   0.000014
     13      -0.100458   0.000074   0.103478  -0.000002   0.001394   0.000004
     14       0.000004   0.178578  -0.000232   0.037215   0.000008  -0.105639
     15       0.050834  -0.458223  -0.191539  -0.043015   0.189656   0.098062
     16       0.102114   0.124125  -0.274546  -0.064375  -0.470280   0.527223
     17      -0.000683   0.203523  -0.030273   0.006379   0.041635  -0.011635
     18       0.050857   0.457970  -0.192696   0.043007   0.189664  -0.098042
     19       0.102102  -0.124508  -0.274227   0.064388  -0.470188  -0.527274
     20       0.000693   0.203546   0.029767   0.006389  -0.041643  -0.011625
     21       0.074909  -0.000067  -0.095039   0.000011  -0.015573   0.000003
     22      -0.044857   0.000043   0.061228  -0.000011   0.044887  -0.000004
     23       0.000002  -0.038213   0.000048  -0.018736  -0.000003   0.016306
     24      -0.115234   0.000145   0.205002  -0.000012   0.038943  -0.000008
     25       0.008968  -0.000015  -0.017545   0.000025  -0.028894   0.000007
     26      -0.000006  -0.037257   0.000049   0.038904   0.000004   0.023414
     27       0.145962   0.000036   0.034828  -0.000038   0.087261  -0.000047
     28       0.076153  -0.000028  -0.051345  -0.000071   0.004484  -0.000023
     29       0.000078   0.086763  -0.000088  -0.968154  -0.000101  -0.185611
                 18         19         20         21         22         23    
      0      -0.015751  -0.009739  -0.000002   0.013773   0.009569  -0.028103
      1       0.032741  -0.041312  -0.000000   0.005354  -0.015705   0.071144
      2      -0.000005  -0.000001  -0.085936  -0.000000  -0.000002   0.000001
      3      -0.050998   0.008720   0.000002   0.071939   0.025102   0.023952
      4      -0.098729   0.191063  -0.000001  -0.042319   0.010835   0.014131
      5      -0.000008  -0.000000   0.081293  -0.000002  -0.000000  -0.000001
      6      -0.162796   0.034628   0.376037  -0.025752  -0.056175   0.118103
      7      -0.032102   0.007505  -0.246678   0.031599   0.053661  -0.556112
      8       0.049445  -0.034128   0.057324  -0.018183  -0.043758   0.410728
      9      -0.162687   0.034630  -0.376032  -0.025749  -0.056150   0.118086
     10      -0.032107   0.007508   0.246674   0.031598   0.053669  -0.556121
     11      -0.049440   0.034127   0.057337   0.018185   0.043764  -0.410731
     12       0.340259   0.002666  -0.000001   0.027933  -0.127148  -0.016954
     13       0.162295  -0.001712  -0.000000   0.016285  -0.047965  -0.005948
     14       0.000015  -0.000000   0.022633   0.000000   0.000004   0.000000
     15       0.106607  -0.122375   0.188853  -0.541977   0.021403  -0.018653
     16      -0.169978  -0.667524  -0.500261   0.115859   0.038250  -0.012569
     17      -0.101328   0.131233  -0.027170   0.430350   0.005367   0.034645
     18       0.106634  -0.122382  -0.188856  -0.541990   0.021404  -0.018653
     19      -0.169850  -0.667512   0.500271   0.115855   0.038256  -0.012571
     20       0.101333  -0.131227  -0.027166  -0.430328  -0.005365  -0.034644
     21       0.040931   0.013078   0.000000   0.000059   0.040872   0.003369
     22      -0.116917  -0.030935   0.000000  -0.004088  -0.024101   0.000297
     23       0.000001   0.000000  -0.004050  -0.000000   0.000000  -0.000000
     24      -0.188136  -0.002226   0.000001  -0.012181   0.091942   0.008141
     25       0.074855   0.008202   0.000000   0.000718   0.065519   0.003785
     26      -0.000015  -0.000001  -0.000482  -0.000000  -0.000004   0.000000
     27      -0.779188   0.002912   0.000003  -0.053551  -0.955534  -0.074457
     28      -0.140735  -0.001344  -0.000003  -0.005605  -0.180570  -0.013526
     29       0.000207   0.000012  -0.032583  -0.000001   0.000044  -0.000004
                 24         25         26         27         28         29    
      0      -0.001860  -0.000403   0.000000   0.002052   0.003250  -0.000002
      1       0.005922   0.000137  -0.000000  -0.001436   0.057443  -0.000001
      2      -0.000001   0.000000   0.003055   0.000001  -0.000001  -0.081912
      3      -0.007454   0.069639  -0.000002  -0.006637   0.002894  -0.000000
      4       0.037272   0.004452  -0.000000   0.001459  -0.000645  -0.000000
      5      -0.000002  -0.000002  -0.094724  -0.000000  -0.000000  -0.001437
      6      -0.027569   0.000209  -0.001292   0.006815  -0.039046   0.055062
      7       0.003129   0.003019  -0.003793   0.016402  -0.390783   0.413745
      8      -0.000879   0.007230  -0.013092   0.022012  -0.585916   0.567654
      9      -0.027553   0.000208   0.001291   0.006806  -0.039018  -0.055033
     10       0.003134   0.003019   0.003793   0.016397  -0.390783  -0.413735
     11       0.000882  -0.007230  -0.013092  -0.022012   0.585928   0.567653
     12       0.376624   0.001716  -0.000000   0.013481  -0.000284  -0.000000
     13      -0.628146  -0.001322   0.000000  -0.007120  -0.000376   0.000000
     14       0.000010   0.000000  -0.000965   0.000000   0.000000  -0.000172
     15      -0.011539  -0.407375   0.422460   0.024360   0.000457   0.008403
     16      -0.084157  -0.026092   0.032772  -0.005728  -0.003884   0.001323
     17       0.023980  -0.573870   0.561941   0.029313  -0.005527   0.011397
     18      -0.011533  -0.407356  -0.422436   0.024356   0.000457  -0.008403
     19      -0.084145  -0.026091  -0.032770  -0.005727  -0.003884  -0.001323
     20      -0.023977   0.573889   0.561953  -0.029309   0.005528   0.011397
     21      -0.213125  -0.000438   0.000000  -0.003779  -0.000025  -0.000000
     22       0.388168   0.000541  -0.000000   0.002986   0.000128  -0.000000
     23      -0.000003  -0.000000   0.000194   0.000000   0.000000   0.000011
     24      -0.029022  -0.000161  -0.000000   0.008985   0.000476  -0.000000
     25       0.072867  -0.003333   0.000000  -0.059467  -0.002332   0.000000
     26      -0.000005   0.000000  -0.000124   0.000004   0.000000  -0.000007
     27      -0.451512  -0.020823   0.000002  -0.255045  -0.006275   0.000001
     28      -0.197162   0.051260  -0.000005   0.962526   0.038266  -0.000003
     29       0.000054  -0.000005  -0.001078  -0.000080  -0.000002  -0.000754


-----------
IR SPECTRUM
-----------

 Mode    freq (cm**-1)   T**2         TX         TY         TZ
-------------------------------------------------------------------
   7:       259.60   12.400927  ( -0.000023   0.000756   3.521495)
   8:       344.51   21.050159  ( -0.977648  -4.482674   0.000019)
   9:       497.88    0.322657  ( -0.432985  -0.367669   0.000187)
  10:       516.52    1.125437  ( -0.000143  -0.000226  -1.060866)
  11:       649.11    2.918102  ( -1.309397   1.097079  -0.000290)
  12:       789.40   52.514950  ( -7.244919   0.161568   0.000842)
  13:       876.22   10.757651  ( -0.007025   0.002112   3.279878)
  14:       878.28   70.222561  ( -8.094531   2.168207  -0.002825)
  15:       951.28   60.755480  ( -0.001155  -0.001919  -7.794580)
  16:      1059.61    9.240548  ( -0.284346  -3.026499  -0.000477)
  17:      1102.50    5.310385  ( -0.000136  -0.000754  -2.304427)
  18:      1201.79   31.984404  (  5.480789  -1.394759   0.000918)
  19:      1269.28   14.539609  ( -3.319331   1.876606   0.000132)
  20:      1280.93    0.112594  ( -0.000206  -0.000069  -0.335550)
  21:      1381.09    7.273877  ( -1.455612  -2.270478   0.000057)
  22:      1440.21  355.474157  (-17.918161  -5.866315  -0.000063)
  23:      1572.84   36.175616  ( -2.136330  -5.622429  -0.000001)
  24:      1845.75  321.774896  (  6.740231 -16.623603   0.000289)
  25:      2991.04    8.767282  (  2.941174  -0.341726  -0.000123)
  26:      3046.91    3.648211  (  0.000107  -0.000195  -1.910029)
  27:      3124.85  428.649969  (  1.013734  20.679031  -0.000389)
  28:      3447.09    2.597670  ( -0.736134  -1.433798  -0.000124)
  29:      3528.99   18.273215  (  0.000108   0.000177   4.274718)

The first frequency considered to be a vibration is 7
The total number of vibrations considered is 23


--------------------------
THERMOCHEMISTRY AT 298.15K
--------------------------

Temperature         ... 298.15 K
Pressure            ... 1.00 atm
Total Mass          ... 75.07 AMU

Throughout the following assumptions are being made:
  (1) The electronic state is orbitally nondegenerate
  (2) There are no thermally accessible electronically excited states
  (3) Hindered rotations indicated by low frequency modes are not
      treated as such but are treated as vibrations and this may
      cause some error
  (4) All equations used are the standard statistical mechanics
      equations for an ideal gas
  (5) All vibrations are strictly harmonic

freq.     259.60  E(vib)   ...       0.30 
freq.     344.51  E(vib)   ...       0.23 
freq.     497.88  E(vib)   ...       0.14 
freq.     516.52  E(vib)   ...       0.13 
freq.     649.11  E(vib)   ...       0.08 
freq.     789.40  E(vib)   ...       0.05 
freq.     876.22  E(vib)   ...       0.04 
freq.     878.28  E(vib)   ...       0.04 
freq.     951.28  E(vib)   ...       0.03 
freq.    1059.61  E(vib)   ...       0.02 
freq.    1102.50  E(vib)   ...       0.02 
freq.    1201.79  E(vib)   ...       0.01 
freq.    1269.28  E(vib)   ...       0.01 
freq.    1280.93  E(vib)   ...       0.01 
freq.    1381.09  E(vib)   ...       0.01 
freq.    1440.21  E(vib)   ...       0.00 
freq.    1572.84  E(vib)   ...       0.00 
freq.    1845.75  E(vib)   ...       0.00 
freq.    2991.04  E(vib)   ...       0.00 
freq.    3046.91  E(vib)   ...       0.00 
freq.    3124.85  E(vib)   ...       0.00 
freq.    3447.09  E(vib)   ...       0.00 
freq.    3528.99  E(vib)   ...       0.00 

------------
INNER ENERGY
------------

The inner energy is: U= E(el) + E(ZPE) + E(vib) + E(rot) + E(trans)
    E(el)   - is the total energy from the electronic structure calculation
              = E(kin-el) + E(nuc-el) + E(el-el) + E(nuc-nuc)
    E(ZPE)  - the the zero temperature vibrational energy from the frequency calculation
    E(vib)  - the the finite temperature correction to E(ZPE) due to population
              of excited vibrational states
    E(rot)  - is the rotational thermal energy
    E(trans)- is the translational thermal energy

Summary of contributions to the inner energy U:
Electronic energy                ...   -283.90587097 Eh
Zero point energy                ...      0.07758455 Eh      48.68 kcal/mol
Thermal vibrational correction   ...      0.00177143 Eh       1.11 kcal/mol
Thermal rotational correction    ...      0.00141627 Eh       0.89 kcal/mol
Thermal translational correction ...      0.00141627 Eh       0.89 kcal/mol
-----------------------------------------------------------------------
Total thermal energy                   -283.82368245 Eh


Summary of corrections to the electronic energy:
(perhaps to be used in another calculation)
Total thermal correction                  0.00460397 Eh       2.89 kcal/mol
Non-thermal (ZPE) correction              0.07758455 Eh      48.68 kcal/mol
-----------------------------------------------------------------------
Total correction                          0.08218852 Eh      51.57 kcal/mol


--------
ENTHALPY
--------

The enthalpy is H = U + kB*T
                kB is Boltzmann's constant
Total free energy                 ...   -283.82368245 Eh 
Thermal Enthalpy correction       ...      0.00094421 Eh       0.59 kcal/mol
-----------------------------------------------------------------------
Total Enthalpy                    ...   -283.82273824 Eh


Vibrational entropy computed according to the QRRHO of S. Grimme
Chem.Eur.J. 2012 18 9955

check  

-------
ENTROPY
-------

The entropy contributions are T*S = T*(S(el)+S(vib)+S(rot)+S(trans)
     S(el)   - electronic entropy
     S(vib)  - vibrational entropy
     S(rot)  - rotational entropy
     S(trans)- translational entropy
The entropies will be listed as mutliplied by the temperature to get
units of energy

Electronic entropy                ...      0.00000000 Eh      0.00 kcal/mol
Vibrational entropy               ...      0.00258437 Eh      1.62 kcal/mol
Rotational entropy                ...      0.01101419 Eh      6.91 kcal/mol
Translational entropy             ...      0.01846507 Eh     11.59 kcal/mol
-----------------------------------------------------------------------
Final entropy term                ...      0.03206363 Eh     20.12 kcal/mol


CAUTION: The rotational entropy is not quite correctly treated here
         because it includes a symmetry number that is not yet correctly
         implemented in ORCA!
For a nonlinear molecule the correct rotational entropy is:
    S(rot) = R*(ln(qrot/sn)+1.5)
    R    = 8.31441 J/mol/K = 1.987191683e-3 kcal/mol/K
    qrot = 77959.5738319
    sn is the rotational symmetry number. We have assumed 3 here
       if it is different for your molecule then you should correct
       the printed rotational entropy by manually evaluating the equation
       as given above

For convenience we print out the resulting values for sn=1 - 12:
 sn= 1  qrot/sn=   77959.5738 T*S(rot)=     7.56 kcal/mol T*S(tot)=    20.77 kcal/mol
 sn= 2  qrot/sn=   38979.7869 T*S(rot)=     7.15 kcal/mol T*S(tot)=    20.36 kcal/mol
 sn= 3  qrot/sn=   25986.5246 T*S(rot)=     6.91 kcal/mol T*S(tot)=    20.12 kcal/mol
 sn= 4  qrot/sn=   19489.8935 T*S(rot)=     6.74 kcal/mol T*S(tot)=    19.95 kcal/mol
 sn= 5  qrot/sn=   15591.9148 T*S(rot)=     6.61 kcal/mol T*S(tot)=    19.82 kcal/mol
 sn= 6  qrot/sn=   12993.2623 T*S(rot)=     6.50 kcal/mol T*S(tot)=    19.71 kcal/mol
 sn= 7  qrot/sn=   11137.0820 T*S(rot)=     6.41 kcal/mol T*S(tot)=    19.62 kcal/mol
 sn= 8  qrot/sn=    9744.9467 T*S(rot)=     6.33 kcal/mol T*S(tot)=    19.54 kcal/mol
 sn= 9  qrot/sn=    8662.1749 T*S(rot)=     6.26 kcal/mol T*S(tot)=    19.47 kcal/mol
 sn=10  qrot/sn=    7795.9574 T*S(rot)=     6.20 kcal/mol T*S(tot)=    19.41 kcal/mol
 sn=11  qrot/sn=    7087.2340 T*S(rot)=     6.14 kcal/mol T*S(tot)=    19.35 kcal/mol
 sn=12  qrot/sn=    6496.6312 T*S(rot)=     6.09 kcal/mol T*S(tot)=    19.30 kcal/mol


-------------------
GIBBS FREE ENTHALPY
-------------------

The Gibbs free enthalpy is G = H - T*S

Total enthalpy                    ...   -283.82273824 Eh 
Total entropy correction          ...     -0.03206363 Eh    -20.12 kcal/mol
-----------------------------------------------------------------------
Final Gibbs free enthalpy         ...   -283.85480187 Eh

For completeness - the Gibbs free enthalpy minus the electronic energy
G-E(el)                           ...      0.05106910 Eh     32.05 kcal/mol


Timings for individual modules:

Sum of individual times         ...      115.403 sec (=   1.923 min)
GTO integral calculation        ...        1.178 sec (=   0.020 min)   1.0 %
SCF iterations                  ...       32.608 sec (=   0.543 min)  28.3 %
SCF Gradient evaluation         ...       16.680 sec (=   0.278 min)  14.5 %
Geometry relaxation             ...        0.290 sec (=   0.005 min)   0.3 %
Analytical frequency calculation...       64.648 sec (=   1.077 min)  56.0 %
                             ****ORCA TERMINATED NORMALLY****
TOTAL RUN TIME: 0 days 0 hours 1 minutes 55 seconds 881 msec
