
                                 *****************
                                 * O   R   C   A *
                                 *****************

           --- An Ab Initio, DFT and Semiempirical electronic structure package ---

                  #######################################################
                  #                        -***-                        #
                  #  Department of molecular theory and spectroscopy    #
                  #              Directorship: Frank Neese              #
                  # Max Planck Institute for Chemical Energy Conversion #
                  #                  D-45470 Muelheim/Ruhr              #
                  #                       Germany                       #
                  #                                                     #
                  #                  All rights reserved                #
                  #                        -***-                        #
                  #######################################################


                         Program Version 4.0.0 -  RELEASE  -


 With contributions from (in alphabetic order):
   Daniel Aravena         : Magnetic Properties
   Michael Atanasov       : Ab Initio Ligand Field Theory
   Ute Becker             : Parallelization
   Martin Brehm           : Molecular dynamics
   Dmytro Bykov           : SCF Hessian
   Vijay G. Chilkuri      : MRCI spin determinant printing
   Dipayan Datta          : RHF DLPNO-CCSD density
   Achintya Kumar Dutta   : EOM-CC, STEOM-CC
   Dmitry Ganyushin       : Spin-Orbit,Spin-Spin,Magnetic field MRCI
   Yang Guo               : DLPNO-NEVPT2, CIM, IAO-localization
   Andreas Hansen         : Spin unrestricted coupled pair/coupled cluster methods
   Lee Huntington         : MR-EOM, pCC
   Robert Izsak           : Overlap fitted RIJCOSX, COSX-SCS-MP3, EOM
   Christian Kollmar      : KDIIS, OOCD, Brueckner-CCSD(T), CCSD density
   Simone Kossmann        : Meta GGA functionals, TD-DFT gradient, OOMP2, MP2 Hessian
   Martin Krupicka        : AUTO-CI
   Dagmar Lenk            : GEPOL surface
   Dimitrios Liakos       : Extrapolation schemes; parallel MDCI
   Dimitrios Manganas     : ROCIS; embedding schemes
   Dimitrios Pantazis     : SARC Basis sets
   Taras Petrenko         : DFT Hessian,TD-DFT gradient, ASA, ECA, R-Raman, ABS, FL, XAS/XES, NRVS
   Peter Pinski           : DLPNO-MP2
   Christoph Reimann      : Effective Core Potentials
   Marius Retegan         : Local ZFS, SOC
   Christoph Riplinger    : Optimizer, TS searches, QM/MM, DLPNO-CCSD(T), (RO)-DLPNO pert. Triples
   Tobias Risthaus        : Range-separated hybrids, TD-DFT gradient, RPA, STAB
   Michael Roemelt        : Restricted open shell CIS
   Masaaki Saitow         : Open-shell DLPNO
   Barbara Sandhoefer     : DKH picture change effects
   Kantharuban Sivalingam : CASSCF convergence, NEVPT2, FIC-MRCI
   Georgi Stoychev        : AutoAux
   Boris Wezisla          : Elementary symmetry handling
   Frank Wennmohs         : Technical directorship


 We gratefully acknowledge several colleagues who have allowed us to
 interface, adapt or use parts of their codes:
   Stefan Grimme, W. Hujo, H. Kruse,             : VdW corrections, initial TS optimization,
                  C. Bannwarth                     DFT functionals, gCP, sTDA/sTD-DF
   Ed Valeev                                     : LibInt (2-el integral package), F12 methods
   Garnet Chan, S. Sharma, J. Yang, R. Olivares  : DMRG
   Ulf Ekstrom                                   : XCFun DFT Library
   Mihaly Kallay                                 : mrcc  (arbitrary order and MRCC methods)
   Jiri Pittner, Ondrej Demel                    : Mk-CCSD
   Frank Weinhold                                : gennbo (NPA and NBO analysis)
   Christopher J. Cramer and Donald G. Truhlar   : smd solvation model


 Your calculation uses the libint2 library for the computation of 2-el integrals
 For citations please refer to: http://libint.valeyev.net

 This ORCA versions uses:
   CBLAS   interface :  Fast vector & matrix operations
   LAPACKE interface :  Fast linear algebra routines
   SCALAPACK package :  Parallel linear algebra routines


Your calculation utilizes the basis: def2-SVP
   F. Weigend and R. Ahlrichs, Phys. Chem. Chem. Phys. 7, 3297 (2005).

Your calculation utilizes the auxiliary basis: def2/J
   F. Weigend, Phys. Chem. Chem. Phys. 8, 1057 (2006).

================================================================================
                                        WARNINGS
                       Please study these warnings very carefully!
================================================================================

Warning: TCutStore was < 0. Adjusted to Thresh (uncritical)

WARNING: Geometry Optimization
  ===> : Switching off AutoStart
         For restart on a previous wavefunction, please use MOREAD

INFO   : the flag for use of LIBINT has been found!

================================================================================
                                       INPUT FILE
================================================================================
NAME = 3-gtt_opt.in
|  1> ! rks pbe def2-svp opt anfreq
|  2> 
|  3> * xyz 0 1
|  4> N                     0.0438   -1.92595   0.
|  5> C                    -0.79717  -0.74596   0.
|  6> H                     0.86105  -1.67231  -0.5189
|  7> H                    -0.58115  -2.70014  -0.10748
|  8> C                     0.05661   0.51399   0.
|  9> H                    -1.42307  -0.74417  -0.90115
| 10> H                    -1.42307  -0.74417   0.90115
| 11> O                     1.31175   0.4235    0.
| 12> O                    -0.5675    1.8006    0.
| 13> H                     0.10683   2.48386   0.
| 14> *
| 15> 
| 16>                          ****END OF INPUT****
================================================================================

                       *****************************
                       * Geometry Optimization Run *
                       *****************************

Geometry optimization settings:
Update method            Update   .... BFGS
Choice of coordinates    CoordSys .... Redundant Internals
Initial Hessian          InHess   .... Almoef's Model

Convergence Tolerances:
Energy Change            TolE     ....  5.0000e-06 Eh
Max. Gradient            TolMAXG  ....  3.0000e-04 Eh/bohr
RMS Gradient             TolRMSG  ....  1.0000e-04 Eh/bohr
Max. Displacement        TolMAXD  ....  4.0000e-03 bohr
RMS Displacement         TolRMSD  ....  2.0000e-03 bohr

------------------------------------------------------------------------------
                        ORCA OPTIMIZATION COORDINATE SETUP
------------------------------------------------------------------------------

The optimization will be done in new redundant internal coordinates
Making redundant internal coordinates   ...  (new redundants) done
Evaluating the initial hessian          ...  (Almloef) done
Evaluating the coordinates              ...  done
Calculating the B-matrix                .... done
Calculating the G-matrix                .... done
Diagonalizing the G-matrix              .... done
The first mode is                       ....   12
The number of degrees of freedom        ....   24

    -----------------------------------------------------------------
                    Redundant Internal Coordinates


    -----------------------------------------------------------------
         Definition                    Initial Value    Approx d2E/dq
    -----------------------------------------------------------------
      1. B(C   1,N   0)                  1.4490         0.450548   
      2. B(H   2,N   0)                  1.0007         0.447675   
      3. B(H   3,N   0)                  1.0007         0.447678   
      4. B(C   4,C   1)                  1.5220         0.384749   
      5. B(H   5,C   1)                  1.0972         0.350713   
      6. B(H   6,C   1)                  1.0972         0.350713   
      7. B(O   7,C   4)                  1.2584         0.907483   
      8. B(O   8,C   4)                  1.4300         0.483137   
      9. B(H   9,O   8)                  0.9600         0.519991   
     10. A(C   1,N   0,H   3)          105.5187         0.341809   
     11. A(H   2,N   0,H   3)          130.5693         0.306581   
     12. A(C   1,N   0,H   2)          105.5194         0.341808   
     13. A(C   4,C   1,H   5)          108.5818         0.324482   
     14. A(N   0,C   1,H   5)          109.4151         0.331040   
     15. A(N   0,C   1,H   6)          109.4151         0.331040   
     16. A(H   5,C   1,H   6)          110.4354         0.288441   
     17. A(C   4,C   1,H   6)          108.5818         0.324482   
     18. A(N   0,C   1,C   4)          110.4001         0.374780   
     19. A(O   7,C   4,O   8)          120.0008         0.438667   
     20. A(C   1,C   4,O   8)          120.0001         0.379333   
     21. A(C   1,C   4,O   7)          119.9991         0.423858   
     22. A(C   4,O   8,H   9)          109.4997         0.354690   
     23. D(H   6,C   1,N   0,H   2)   -151.9996         0.017317   
     24. D(H   5,C   1,N   0,H   3)    -54.1574         0.017317   
     25. D(H   6,C   1,N   0,H   3)     66.9568         0.017317   
     26. D(H   5,C   1,N   0,H   2)     86.8861         0.017317   
     27. D(C   4,C   1,N   0,H   2)    -32.5568         0.017317   
     28. D(C   4,C   1,N   0,H   3)   -173.6003         0.017317   
     29. D(O   7,C   4,C   1,N   0)      0.0000         0.011030   
     30. D(O   8,C   4,C   1,H   6)    -60.0540         0.011030   
     31. D(O   8,C   4,C   1,H   5)     60.0540         0.011030   
     32. D(O   8,C   4,C   1,N   0)    180.0000         0.011030   
     33. D(O   7,C   4,C   1,H   6)    119.9460         0.011030   
     34. D(O   7,C   4,C   1,H   5)   -119.9460         0.011030   
     35. D(H   9,O   8,C   4,O   7)      0.0000         0.016749   
     36. D(H   9,O   8,C   4,C   1)    180.0000         0.016749   
    -----------------------------------------------------------------

Number of atoms                         .... 10
Number of degrees of freedom            .... 36

         *************************************************************
         *                GEOMETRY OPTIMIZATION CYCLE   1            *
         *************************************************************
---------------------------------
CARTESIAN COORDINATES (ANGSTROEM)
---------------------------------
  N      0.043800   -1.925950    0.000000
  C     -0.797170   -0.745960    0.000000
  H      0.861050   -1.672310   -0.518900
  H     -0.581150   -2.700140   -0.107480
  C      0.056610    0.513990    0.000000
  H     -1.423070   -0.744170   -0.901150
  H     -1.423070   -0.744170    0.901150
  O      1.311750    0.423500    0.000000
  O     -0.567500    1.800600    0.000000
  H      0.106830    2.483860    0.000000

----------------------------
CARTESIAN COORDINATES (A.U.)
----------------------------
  NO LB      ZA    FRAG     MASS         X           Y           Z
   0 N     7.0000    0    14.007    0.082770   -3.639518    0.000000
   1 C     6.0000    0    12.011   -1.506433   -1.409660    0.000000
   2 H     1.0000    0     1.008    1.627149   -3.160208   -0.980579
   3 H     1.0000    0     1.008   -1.098214   -5.102525   -0.203108
   4 C     6.0000    0    12.011    0.106977    0.971300    0.000000
   5 H     1.0000    0     1.008   -2.689213   -1.406277   -1.702927
   6 H     1.0000    0     1.008   -2.689213   -1.406277    1.702927
   7 O     8.0000    0    15.999    2.478848    0.800299    0.000000
   8 O     8.0000    0    15.999   -1.072420    3.402641    0.000000
   9 H     1.0000    0     1.008    0.201879    4.693815    0.000000

--------------------------------
INTERNAL COORDINATES (ANGSTROEM)
--------------------------------
 N      0   0   0     0.000000000000     0.00000000     0.00000000
 C      1   0   0     1.449002050033     0.00000000     0.00000000
 H      1   2   0     1.000743734480   105.51940040     0.00000000
 H      1   2   3     1.000742029196   105.51869708   218.95646833
 C      2   1   3     1.521977099335   110.40006620   327.44324295
 H      2   1   3     1.097189745030   109.41511246    86.88611598
 H      2   1   3     1.097189745030   109.41511246   208.00036992
 O      5   2   1     1.258397735098   119.99911177     0.00000000
 O      5   2   1     1.429992511938   120.00011266   180.00000000
 H      9   5   2     0.959981862589   109.49973670   180.00000085

---------------------------
INTERNAL COORDINATES (A.U.)
---------------------------
 N      0   0   0     0.000000000000     0.00000000     0.00000000
 C      1   0   0     2.738217042053     0.00000000     0.00000000
 H      1   2   0     1.891131588404   105.51940040     0.00000000
 H      1   2   3     1.891128365886   105.51869708   218.95646833
 C      2   1   3     2.876119899843   110.40006620   327.44324295
 H      2   1   3     2.073388135054   109.41511246    86.88611598
 H      2   1   3     2.073388135054   109.41511246   208.00036992
 O      5   2   1     2.378027086882   119.99911177     0.00000000
 O      5   2   1     2.702294221122   120.00011266   180.00000000
 H      9   5   2     1.814102813825   109.49973670   180.00000085

---------------------
BASIS SET INFORMATION
---------------------
There are 4 groups of distinct atoms

 Group   1 Type N   : 7s4p1d contracted to 3s2p1d pattern {511/31/1}
 Group   2 Type C   : 7s4p1d contracted to 3s2p1d pattern {511/31/1}
 Group   3 Type H   : 4s1p contracted to 2s1p pattern {31/1}
 Group   4 Type O   : 7s4p1d contracted to 3s2p1d pattern {511/31/1}

Atom   0N    basis set group =>   1
Atom   1C    basis set group =>   2
Atom   2H    basis set group =>   3
Atom   3H    basis set group =>   3
Atom   4C    basis set group =>   2
Atom   5H    basis set group =>   3
Atom   6H    basis set group =>   3
Atom   7O    basis set group =>   4
Atom   8O    basis set group =>   4
Atom   9H    basis set group =>   3
-------------------------------
AUXILIARY BASIS SET INFORMATION
-------------------------------
There are 4 groups of distinct atoms

 Group   1 Type N   : 12s5p4d2f1g contracted to 6s4p3d1f1g pattern {711111/2111/211/2/1}
 Group   2 Type C   : 12s5p4d2f1g contracted to 6s4p3d1f1g pattern {711111/2111/211/2/1}
 Group   3 Type H   : 5s2p1d contracted to 3s1p1d pattern {311/2/1}
 Group   4 Type O   : 12s5p4d2f1g contracted to 6s4p3d1f1g pattern {711111/2111/211/2/1}

Atom   0N    basis set group =>   1
Atom   1C    basis set group =>   2
Atom   2H    basis set group =>   3
Atom   3H    basis set group =>   3
Atom   4C    basis set group =>   2
Atom   5H    basis set group =>   3
Atom   6H    basis set group =>   3
Atom   7O    basis set group =>   4
Atom   8O    basis set group =>   4
Atom   9H    basis set group =>   3
-------------------------
ECP PARAMETER INFORMATION
-------------------------



------------------------------------------------------------------------------
                           ORCA GTO INTEGRAL CALCULATION
                           -- RI-GTO INTEGRALS CHOSEN --
------------------------------------------------------------------------------

                         BASIS SET STATISTICS AND STARTUP INFO

Gaussian basis set:
 # of primitive gaussian shells          ...   85
 # of primitive gaussian functions       ...  155
 # of contracted shells                  ...   45
 # of contracted basis functions         ...   95
 Highest angular momentum                ...    2
 Maximum contraction depth               ...    5
Auxiliary gaussian basis set:
 # of primitive gaussian shells          ...  160
 # of primitive gaussian functions       ...  430
 # of contracted shells                  ...  100
 # of contracted aux-basis functions     ...  300
 Highest angular momentum                ...    4
 Maximum contraction depth               ...    7
Ratio of auxiliary to basis functions    ...  3.16
Integral package used                  ... LIBINT
 One Electron integrals                  
   ECP integrals                         ... done
 Ordering auxiliary basis shells         ... done
 Integral threshhold             Thresh  ...  2.500e-11
 Primitive cut-off               TCut    ...  2.500e-12
 Pre-screening matrix                    ... done
 Shell pair data                         ... 
 Ordering of the shell pairs             ... done (   0.000 sec) 1014 of 1035 pairs
 Determination of significant pairs      ... done (   0.000 sec)
 Creation of shell pair data             ... done (   0.000 sec)
 Storage of shell pair data              ... done (   0.000 sec)
 Shell pair data done in (   0.001 sec)
 Computing two index integrals           ... done
 Cholesky decomposition of the V-matrix  ... done


Timings:
 Total evaluation time                   ...   0.164 sec (  0.003 min)
 One electron matrix time                ...   0.011 sec (  0.000 min) =  6.6%
 Schwartz matrix evaluation time         ...   0.110 sec (  0.002 min) = 66.6%
 Two index repulsion integral time       ...   0.003 sec (  0.000 min) =  1.9%
 Cholesky decomposition of V             ...   0.002 sec (  0.000 min) =  1.0%
 Three index repulsion integral time     ...   0.000 sec (  0.000 min) =  0.0%

-------------------------------------------------------------------------------
                                 ORCA SCF
-------------------------------------------------------------------------------

------------
SCF SETTINGS
------------
Hamiltonian:
 Density Functional     Method          .... DFT(GTOs)
 Exchange Functional    Exchange        .... PBE
   PBE kappa parameter   XKappa         ....  0.804000
   PBE mue parameter    XMuePBE         ....  0.219520
 Correlation Functional Correlation     .... PBE
   PBE beta parameter  CBetaPBE         ....  0.066725
 LDA part of GGA corr.  LDAOpt          .... PW91-LDA
 Gradients option       PostSCFGGA      .... off
   NL short-range parameter             ....  6.400000
 RI-approximation to the Coulomb term is turned on
   Number of auxiliary basis functions  .... 300


General Settings:
 Integral files         IntName         .... 3-gtt_opt
 Hartree-Fock type      HFTyp           .... RHF
 Total Charge           Charge          ....    0
 Multiplicity           Mult            ....    1
 Number of Electrons    NEL             ....   40
 Basis Dimension        Dim             ....   95
 Nuclear Repulsion      ENuc            ....    176.4747137058 Eh

Convergence Acceleration:
 DIIS                   CNVDIIS         .... on
   Start iteration      DIISMaxIt       ....    12
   Startup error        DIISStart       ....  0.200000
   # of expansion vecs  DIISMaxEq       ....     5
   Bias factor          DIISBfac        ....   1.050
   Max. coefficient     DIISMaxC        ....  10.000
 Newton-Raphson         CNVNR           .... off
 SOSCF                  CNVSOSCF        .... on
   Start iteration      SOSCFMaxIt      ....   150
   Startup grad/error   SOSCFStart      ....  0.003300
 Level Shifting         CNVShift        .... on
   Level shift para.    LevelShift      ....    0.2500
   Turn off err/grad.   ShiftErr        ....    0.0010
 Zerner damping         CNVZerner       .... off
 Static damping         CNVDamp         .... on
   Fraction old density DampFac         ....    0.7000
   Max. Damping (<1)    DampMax         ....    0.9800
   Min. Damping (>=0)   DampMin         ....    0.0000
   Turn off err/grad.   DampErr         ....    0.1000
 Fernandez-Rico         CNVRico         .... off

SCF Procedure:
 Maximum # iterations   MaxIter         ....   125
 SCF integral mode      SCFMode         .... Direct
   Integral package                     .... LIBINT
 Reset frequeny         DirectResetFreq ....    20
 Integral Threshold     Thresh          ....  2.500e-11 Eh
 Primitive CutOff       TCut            ....  2.500e-12 Eh

Convergence Tolerance:
 Convergence Check Mode ConvCheckMode   .... Total+1el-Energy
 Convergence forced     ConvForced      .... 0
 Energy Change          TolE            ....  1.000e-08 Eh
 1-El. energy change                    ....  1.000e-05 Eh
 Orbital Gradient       TolG            ....  1.000e-05
 Orbital Rotation angle TolX            ....  1.000e-05
 DIIS Error             TolErr          ....  5.000e-07


Diagonalization of the overlap matrix:
Smallest eigenvalue                        ... 2.277e-03
Time for diagonalization                   ...    0.002 sec
Threshold for overlap eigenvalues          ... 1.000e-08
Number of eigenvalues below threshold      ... 0
Time for construction of square roots      ...    0.000 sec
Total time needed                          ...    0.002 sec

-------------------
DFT GRID GENERATION
-------------------

General Integration Accuracy     IntAcc      ...  4.340
Radial Grid Type                 RadialGrid  ... Gauss-Chebyshev
Angular Grid (max. acc.)         AngularGrid ... Lebedev-110
Angular grid pruning method      GridPruning ... 3 (G Style)
Weight generation scheme         WeightScheme... Becke
Basis function cutoff            BFCut       ...    1.0000e-11
Integration weight cutoff        WCut        ...    1.0000e-14
Grids for H and He will be reduced by one unit

# of grid points (after initial pruning)     ...  12416 (   0.0 sec)
# of grid points (after weights+screening)   ...  11824 (   0.0 sec)
nearest neighbour list constructed           ...    0.0 sec
Grid point re-assignment to atoms done       ...    0.0 sec
Grid point division into batches done        ...    0.0 sec
Reduced shell lists constructed in    0.1 sec

Total number of grid points                  ...    11824
Total number of batches                      ...      189
Average number of points per batch           ...       62
Average number of grid points per atom       ...     1182
Average number of shells per batch           ...    35.74 (79.42%)
Average number of basis functions per batch  ...    75.32 (79.28%)
Average number of large shells per batch     ...    29.89 (83.65%)
Average number of large basis fcns per batch ...    61.91 (82.19%)
Maximum spatial batch extension              ...  22.84, 17.98, 25.60 au
Average spatial batch extension              ...   4.29,  4.01,  4.63 au

Time for grid setup =    0.097 sec

------------------------------
INITIAL GUESS: MODEL POTENTIAL
------------------------------
Loading Hartree-Fock densities                     ... done
Calculating cut-offs                               ... done
Setting up the integral package                    ... done
Initializing the effective Hamiltonian             ... done
Starting the Coulomb interaction                   ... done (   0.0 sec)
Reading the grid                                   ... done
Mapping shells                                     ... done
Starting the XC term evaluation                    ... done (   0.1 sec)
  promolecular density results
     # of electrons  =     39.994852476
     EX              =    -34.503502161
     EC              =     -1.324128527
     EX+EC           =    -35.827630688
Transforming the Hamiltonian                       ... done (   0.0 sec)
Diagonalizing the Hamiltonian                      ... done (   0.0 sec)
Back transforming the eigenvectors                 ... done (   0.0 sec)
Now organizing SCF variables                       ... done
                      ------------------
                      INITIAL GUESS DONE (   0.3 sec)
                      ------------------
--------------
SCF ITERATIONS
--------------
ITER       Energy         Delta-E        Max-DP      RMS-DP      [F,P]     Damp
               ***  Starting incremental Fock matrix formation  ***
  0   -283.6531143385   0.000000000000 0.11367309  0.00501694  0.2759833 0.7000
  1   -283.7697321274  -0.116617788943 0.05569975  0.00266354  0.0973204 0.7000
                               ***Turning on DIIS***
  2   -283.7987005021  -0.028968374694 0.05398511  0.00307169  0.0388245 0.0000
  3   -283.8653017788  -0.066601276678 0.04035183  0.00183624  0.0595812 0.0000
  4   -283.8729522527  -0.007650473932 0.01842598  0.00068850  0.0443194 0.0000
  5   -283.8754783667  -0.002526113929 0.00543732  0.00021176  0.0085055 0.0000
  6   -283.8756012659  -0.000122899188 0.00264064  0.00008968  0.0041387 0.0000
                      *** Initiating the SOSCF procedure ***
                           *** Shutting down DIIS ***
                      *** Re-Reading the Fockian *** 
                      *** Removing any level shift *** 
ITER      Energy       Delta-E        Grad      Rot      Max-DP    RMS-DP
  7   -283.87562143  -0.0000201631  0.000177  0.000177  0.000822  0.000044
               *** Restarting incremental Fock matrix formation ***
  8   -283.87562251  -0.0000010831  0.000248  0.000828  0.001004  0.000044
  9   -283.87561955   0.0000029661  0.000611  0.000611  0.000864  0.000030
 10   -283.87562317  -0.0000036290  0.000132  0.000499  0.000454  0.000019
 11   -283.87562240   0.0000007740  0.000368  0.000400  0.000394  0.000014
 12   -283.87562329  -0.0000008873  0.000020  0.000052  0.000125  0.000005
 13   -283.87562326   0.0000000274  0.000040  0.000027  0.000081  0.000003
                  ***Gradient check signals convergence***
              ***Rediagonalizing the Fockian in SOSCF/NRSCF***

               *****************************************************
               *                     SUCCESS                       *
               *           SCF CONVERGED AFTER  14 CYCLES          *
               *****************************************************

Setting up the final grid:

General Integration Accuracy     IntAcc      ...  4.670
Radial Grid Type                 RadialGrid  ... Gauss-Chebyshev
Angular Grid (max. acc.)         AngularGrid ... Lebedev-302
Angular grid pruning method      GridPruning ... 3 (G Style)
Weight generation scheme         WeightScheme... Becke
Basis function cutoff            BFCut       ...    1.0000e-11
Integration weight cutoff        WCut        ...    1.0000e-14
Grids for H and He will be reduced by one unit

# of grid points (after initial pruning)     ...  48030 (   0.0 sec)
# of grid points (after weights+screening)   ...  45370 (   0.1 sec)
nearest neighbour list constructed           ...    0.0 sec
Grid point re-assignment to atoms done       ...    0.0 sec
Grid point division into batches done        ...    0.1 sec
Reduced shell lists constructed in    0.4 sec

Total number of grid points                  ...    45370
Total number of batches                      ...      714
Average number of points per batch           ...       63
Average number of grid points per atom       ...     4537
Average number of shells per batch           ...    32.55 (72.34%)
Average number of basis functions per batch  ...    68.21 (71.80%)
Average number of large shells per batch     ...    26.66 (81.91%)
Average number of large basis fcns per batch ...    54.65 (80.12%)
Maximum spatial batch extension              ...  19.84, 19.78, 21.35 au
Average spatial batch extension              ...   2.77,  2.64,  2.94 au

Final grid set up in    0.4 sec
Final integration                            ... done (   0.4 sec)
Change in XC energy                          ...    -0.000659524
Integrated number of electrons               ...    39.999999316
Previous integrated no of electrons          ...    39.996177876

----------------
TOTAL SCF ENERGY
----------------

Total Energy       :         -283.87628282 Eh           -7724.66637 eV

Components:
Nuclear Repulsion  :          176.47471371 Eh            4802.12110 eV
Electronic Energy  :         -460.35099653 Eh          -12526.78747 eV
One Electron Energy:         -737.09338229 Eh          -20057.33063 eV
Two Electron Energy:          276.74238576 Eh            7530.54316 eV

Virial components:
Potential Energy   :         -565.27784502 Eh          -15381.99217 eV
Kinetic Energy     :          281.40156220 Eh            7657.32580 eV
Virial Ratio       :            2.00879427


DFT components:
N(Alpha)           :       19.999999658038 electrons
N(Beta)            :       19.999999658038 electrons
N(Total)           :       39.999999316077 electrons
E(X)               :      -35.066939378261 Eh       
E(C)               :       -1.344528129295 Eh       
E(XC)              :      -36.411467507556 Eh       

---------------
SCF CONVERGENCE
---------------

  Last Energy change         ...   -3.9580e-08  Tolerance :   1.0000e-08
  Last MAX-Density change    ...    7.0193e-06  Tolerance :   1.0000e-07
  Last RMS-Density change    ...    2.6202e-07  Tolerance :   5.0000e-09
  Last Orbital Gradient      ...    1.6968e-06  Tolerance :   1.0000e-05
  Last Orbital Rotation      ...    3.0272e-06  Tolerance :   1.0000e-05

             **** THE GBW FILE WAS UPDATED (3-gtt_opt.gbw) ****
             **** DENSITY FILE WAS UPDATED (3-gtt_opt.scfp.tmp) ****
             **** ENERGY FILE WAS UPDATED (3-gtt_opt.en.tmp) ****
----------------
ORBITAL ENERGIES
----------------

  NO   OCC          E(Eh)            E(eV) 
   0   2.0000     -18.801803      -511.6231 
   1   2.0000     -18.754373      -510.3324 
   2   2.0000     -13.966079      -380.0363 
   3   2.0000     -10.029155      -272.9072 
   4   2.0000      -9.939418      -270.4653 
   5   2.0000      -0.977310       -26.5940 
   6   2.0000      -0.902097       -24.5473 
   7   2.0000      -0.799753       -21.7624 
   8   2.0000      -0.639800       -17.4098 
   9   2.0000      -0.534981       -14.5576 
  10   2.0000      -0.488589       -13.2952 
  11   2.0000      -0.426572       -11.6076 
  12   2.0000      -0.415739       -11.3128 
  13   2.0000      -0.391495       -10.6531 
  14   2.0000      -0.371260       -10.1025 
  15   2.0000      -0.348849        -9.4927 
  16   2.0000      -0.330091        -8.9822 
  17   2.0000      -0.273175        -7.4335 
  18   2.0000      -0.231850        -6.3090 
  19   2.0000      -0.177688        -4.8351 
  20   0.0000      -0.049521        -1.3475 
  21   0.0000       0.030071         0.8183 
  22   0.0000       0.037819         1.0291 
  23   0.0000       0.085702         2.3321 
  24   0.0000       0.107209         2.9173 
  25   0.0000       0.116182         3.1615 
  26   0.0000       0.147154         4.0043 
  27   0.0000       0.171651         4.6709 
  28   0.0000       0.237769         6.4700 
  29   0.0000       0.282210         7.6793 
  30   0.0000       0.398994        10.8572 
  31   0.0000       0.415844        11.3157 
  32   0.0000       0.443249        12.0614 
  33   0.0000       0.487569        13.2674 
  34   0.0000       0.498229        13.5575 
  35   0.0000       0.539128        14.6704 
  36   0.0000       0.548292        14.9198 
  37   0.0000       0.572455        15.5773 
  38   0.0000       0.599653        16.3174 
  39   0.0000       0.616699        16.7812 
  40   0.0000       0.623273        16.9601 
  41   0.0000       0.681735        18.5510 
  42   0.0000       0.727327        19.7916 
  43   0.0000       0.761712        20.7272 
  44   0.0000       0.798841        21.7376 
  45   0.0000       0.842140        22.9158 
  46   0.0000       0.882913        24.0253 
  47   0.0000       0.912058        24.8184 
  48   0.0000       0.942969        25.6595 
  49   0.0000       0.998725        27.1767 
  50   0.0000       1.077471        29.3195 
  51   0.0000       1.100024        29.9332 
  52   0.0000       1.153033        31.3756 
  53   0.0000       1.162935        31.6451 
  54   0.0000       1.219561        33.1860 
  55   0.0000       1.329832        36.1866 
  56   0.0000       1.355079        36.8736 
  57   0.0000       1.447585        39.3908 
  58   0.0000       1.484256        40.3887 
  59   0.0000       1.527056        41.5533 
  60   0.0000       1.555507        42.3275 
  61   0.0000       1.568433        42.6792 
  62   0.0000       1.619705        44.0744 
  63   0.0000       1.669734        45.4358 
  64   0.0000       1.701991        46.3135 
  65   0.0000       1.731505        47.1166 
  66   0.0000       1.773446        48.2579 
  67   0.0000       1.798390        48.9367 
  68   0.0000       1.830046        49.7981 
  69   0.0000       1.846440        50.2442 
  70   0.0000       1.974057        53.7168 
  71   0.0000       2.078345        56.5546 
  72   0.0000       2.093411        56.9646 
  73   0.0000       2.163357        58.8679 
  74   0.0000       2.205095        60.0037 
  75   0.0000       2.228407        60.6380 
  76   0.0000       2.301573        62.6290 
  77   0.0000       2.360474        64.2318 
  78   0.0000       2.532657        68.9171 
  79   0.0000       2.575600        70.0856 
  80   0.0000       2.610053        71.0232 
  81   0.0000       2.616464        71.1976 
  82   0.0000       2.740543        74.5740 
  83   0.0000       2.771424        75.4143 
  84   0.0000       2.805337        76.3371 
  85   0.0000       2.817923        76.6796 
  86   0.0000       2.874637        78.2229 
  87   0.0000       2.957232        80.4704 
  88   0.0000       3.016290        82.0774 
  89   0.0000       3.054457        83.1160 
  90   0.0000       3.152576        85.7860 
  91   0.0000       3.329252        90.5935 
  92   0.0000       3.379237        91.9537 
  93   0.0000       3.451167        93.9110 
  94   0.0000       3.635311        98.9218 

                    ********************************
                    * MULLIKEN POPULATION ANALYSIS *
                    ********************************

-----------------------
MULLIKEN ATOMIC CHARGES
-----------------------
   0 N :   -0.221169
   1 C :    0.073745
   2 H :    0.111647
   3 H :    0.103396
   4 C :    0.096177
   5 H :    0.036411
   6 H :    0.051111
   7 O :   -0.231509
   8 O :   -0.196430
   9 H :    0.176621
Sum of atomic charges:   -0.0000000

--------------------------------
MULLIKEN REDUCED ORBITAL CHARGES
--------------------------------
  0 N s       :     3.375348  s :     3.375348
      pz      :     1.719250  p :     3.829825
      px      :     1.078522
      py      :     1.032053
      dz2     :     0.001970  d :     0.015996
      dxz     :     0.003660
      dyz     :     0.001997
      dx2y2   :     0.002037
      dxy     :     0.006332
  1 C s       :     2.954497  s :     2.954497
      pz      :     1.025763  p :     2.923962
      px      :     1.005201
      py      :     0.892998
      dz2     :     0.006672  d :     0.047796
      dxz     :     0.011981
      dyz     :     0.008415
      dx2y2   :     0.009014
      dxy     :     0.011714
  2 H s       :     0.839490  s :     0.839490
      pz      :     0.016858  p :     0.048864
      px      :     0.021677
      py      :     0.010329
  3 H s       :     0.849474  s :     0.849474
      pz      :     0.015049  p :     0.047130
      px      :     0.013735
      py      :     0.018346
  4 C s       :     3.112641  s :     3.112641
      pz      :     0.852681  p :     2.682805
      px      :     0.911693
      py      :     0.918432
      dz2     :     0.006340  d :     0.108377
      dxz     :     0.019823
      dyz     :     0.010069
      dx2y2   :     0.028437
      dxy     :     0.043708
  5 H s       :     0.941436  s :     0.941436
      pz      :     0.010897  p :     0.022152
      px      :     0.007309
      py      :     0.003946
  6 H s       :     0.926829  s :     0.926829
      pz      :     0.011215  p :     0.022060
      px      :     0.007305
      py      :     0.003539
  7 O s       :     3.791169  s :     3.791169
      pz      :     1.386327  p :     4.424818
      px      :     1.303351
      py      :     1.735140
      dz2     :     0.001734  d :     0.015522
      dxz     :     0.004824
      dyz     :     0.000064
      dx2y2   :     0.005353
      dxy     :     0.003547
  8 O s       :     3.713561  s :     3.713561
      pz      :     1.768854  p :     4.471928
      px      :     1.528488
      py      :     1.174586
      dz2     :     0.001753  d :     0.010941
      dxz     :     0.001367
      dyz     :     0.000832
      dx2y2   :     0.001532
      dxy     :     0.005458
  9 H s       :     0.756387  s :     0.756387
      pz      :     0.017342  p :     0.066992
      px      :     0.024945
      py      :     0.024705


                     *******************************
                     * LOEWDIN POPULATION ANALYSIS *
                     *******************************

----------------------
LOEWDIN ATOMIC CHARGES
----------------------
   0 N :   -0.104276
   1 C :   -0.011114
   2 H :    0.048540
   3 H :    0.056224
   4 C :    0.108393
   5 H :    0.026744
   6 H :    0.042581
   7 O :   -0.185235
   8 O :   -0.066048
   9 H :    0.084190

-------------------------------
LOEWDIN REDUCED ORBITAL CHARGES
-------------------------------
  0 N s       :     3.079583  s :     3.079583
      pz      :     1.684253  p :     3.985042
      px      :     1.186985
      py      :     1.113805
      dz2     :     0.003549  d :     0.039651
      dxz     :     0.007688
      dyz     :     0.003387
      dx2y2   :     0.006844
      dxy     :     0.018183
  1 C s       :     2.843717  s :     2.843717
      pz      :     1.068535  p :     3.051662
      px      :     1.023249
      py      :     0.959877
      dz2     :     0.017859  d :     0.115736
      dxz     :     0.032579
      dyz     :     0.015643
      dx2y2   :     0.017409
      dxy     :     0.032245
  2 H s       :     0.812484  s :     0.812484
      pz      :     0.054898  p :     0.138976
      px      :     0.058730
      py      :     0.025348
  3 H s       :     0.812632  s :     0.812632
      pz      :     0.043648  p :     0.131144
      px      :     0.039689
      py      :     0.047807
  4 C s       :     2.898208  s :     2.898208
      pz      :     0.829298  p :     2.759537
      px      :     1.005776
      py      :     0.924463
      dz2     :     0.014224  d :     0.233861
      dxz     :     0.035348
      dyz     :     0.018247
      dx2y2   :     0.065469
      dxy     :     0.100574
  5 H s       :     0.903378  s :     0.903378
      pz      :     0.032706  p :     0.069877
      px      :     0.023814
      py      :     0.013357
  6 H s       :     0.889960  s :     0.889960
      pz      :     0.033321  p :     0.067458
      px      :     0.021980
      py      :     0.012158
  7 O s       :     3.589310  s :     3.589310
      pz      :     1.385299  p :     4.568684
      px      :     1.439647
      py      :     1.743737
      dz2     :     0.003940  d :     0.027242
      dxz     :     0.005999
      dyz     :     0.000085
      dx2y2   :     0.011850
      dxy     :     0.005367
  8 O s       :     3.459502  s :     3.459502
      pz      :     1.733436  p :     4.584286
      px      :     1.602171
      py      :     1.248680
      dz2     :     0.003961  d :     0.022260
      dxz     :     0.000997
      dyz     :     0.001591
      dx2y2   :     0.003133
      dxy     :     0.012578
  9 H s       :     0.736335  s :     0.736335
      pz      :     0.046954  p :     0.179474
      px      :     0.070741
      py      :     0.061780


                      *****************************
                      * MAYER POPULATION ANALYSIS *
                      *****************************

  NA   - Mulliken gross atomic population
  ZA   - Total nuclear charge
  QA   - Mulliken gross atomic charge
  VA   - Mayer's total valence
  BVA  - Mayer's bonded valence
  FA   - Mayer's free valence

  ATOM       NA         ZA         QA         VA         BVA        FA
  0 N      7.2212     7.0000    -0.2212     3.0693     3.0693     0.0000
  1 C      5.9263     6.0000     0.0737     3.9670     3.9670    -0.0000
  2 H      0.8884     1.0000     0.1116     1.0362     1.0362    -0.0000
  3 H      0.8966     1.0000     0.1034     1.0046     1.0046    -0.0000
  4 C      5.9038     6.0000     0.0962     4.2930     4.2930    -0.0000
  5 H      0.9636     1.0000     0.0364     0.9802     0.9802     0.0000
  6 H      0.9489     1.0000     0.0511     0.9852     0.9852    -0.0000
  7 O      8.2315     8.0000    -0.2315     2.2631     2.2631    -0.0000
  8 O      8.1964     8.0000    -0.1964     2.2310     2.2310     0.0000
  9 H      0.8234     1.0000     0.1766     1.0337     1.0337     0.0000

  Mayer bond orders larger than 0.1
B(  0-N ,  1-C ) :   1.1267 B(  0-N ,  2-H ) :   0.9449 B(  0-N ,  3-H ) :   0.9567 
B(  1-C ,  4-C ) :   0.9905 B(  1-C ,  5-H ) :   0.9142 B(  1-C ,  6-H ) :   0.9117 
B(  4-C ,  7-O ) :   2.0290 B(  4-C ,  8-O ) :   1.1707 B(  7-O ,  8-O ) :   0.1024 
B(  8-O ,  9-H ) :   0.9485 

-------
TIMINGS
-------

Total SCF time: 0 days 0 hours 0 min 5 sec 

Total time                  ....       5.047 sec
Sum of individual times     ....       5.033 sec  ( 99.7%)

Fock matrix formation       ....       4.232 sec  ( 83.9%)
  Split-RI-J                ....       2.329 sec  ( 55.0% of F)
  XC integration            ....       1.894 sec  ( 44.7% of F)
    Basis function eval.    ....       0.798 sec  ( 42.1% of XC)
    Density eval.           ....       0.306 sec  ( 16.2% of XC)
    XC-Functional eval.     ....       0.224 sec  ( 11.8% of XC)
    XC-Potential eval.      ....       0.517 sec  ( 27.3% of XC)
Diagonalization             ....       0.013 sec  (  0.2%)
Density matrix formation    ....       0.001 sec  (  0.0%)
Population analysis         ....       0.002 sec  (  0.0%)
Initial guess               ....       0.231 sec  (  4.6%)
Orbital Transformation      ....       0.000 sec  (  0.0%)
Orbital Orthonormalization  ....       0.000 sec  (  0.0%)
DIIS solution               ....       0.003 sec  (  0.1%)
SOSCF solution              ....       0.006 sec  (  0.1%)
Grid generation             ....       0.544 sec  ( 10.8%)

-------------------------   --------------------
FINAL SINGLE POINT ENERGY      -283.876282824526
-------------------------   --------------------

------------------------------------------------------------------------------
                         ORCA SCF GRADIENT CALCULATION
------------------------------------------------------------------------------

Gradient of the Kohn-Sham DFT energy:
Kohn-Sham wavefunction type      ... RKS
Hartree-Fock exchange scaling    ...    0.000
Number of operators              ...    1
Number of atoms                  ...   10
Basis set dimensions             ...   95
Integral neglect threshold       ... 2.5e-11
Integral primitive cutoff        ... 2.5e-12

Nuclear repulsion gradient       ... done
One Electron Gradient            
  ECP gradient                   ... done
Pre-screening matrix             ... done
RI-J gradient                    ... done
Exchange-correlation gradient    ... done

------------------
CARTESIAN GRADIENT
------------------

   1   N   :    0.014917795   -0.035556717   -0.035179223
   2   C   :   -0.010972726   -0.005226914    0.000479206
   3   H   :   -0.017418611    0.018380871    0.017369284
   4   H   :   -0.007916406    0.022834019    0.015927230
   5   C   :   -0.058798820   -0.035765676   -0.003282483
   6   H   :    0.016072183   -0.011462104    0.006881202
   7   H   :    0.011766350   -0.005293936   -0.005320823
   8   O   :    0.057360666   -0.007033890    0.003284869
   9   O   :    0.015121066    0.064575694   -0.000104712
  10   H   :   -0.020131497   -0.005451346   -0.000054549

Difference to translation invariance:
           :   -0.0000000000   -0.0000000000    0.0000000000

Norm of the cartesian gradient     ...    0.1349678512
RMS gradient                       ...    0.0246416455
MAX gradient                       ...    0.0645756940

-------
TIMINGS
-------

Total SCF gradient time            ...        2.244 sec

One electron gradient       ....       0.029 sec  (  1.3%)
Prescreening matrices       ....       0.038 sec  (  1.7%)
RI-J Coulomb gradient       ....       0.369 sec  ( 16.5%)
XC gradient                 ....       1.705 sec  ( 76.0%)
------------------------------------------------------------------------------
                         ORCA GEOMETRY RELAXATION STEP
------------------------------------------------------------------------------

Reading the OPT-File                    .... done
Getting information on internals        .... done
Copying old internal coords+grads       .... done
Making the new internal coordinates     .... (new redundants).... done
Validating the new internal coordinates .... (new redundants).... done
Calculating the B-matrix                .... done
Calculating the G,G- and P matrices     .... done
Transforming gradient to internals      .... done
Projecting the internal gradient        .... done
Number of atoms                         ....  10
Number of internal coordinates          ....  36
Current Energy                          ....  -283.876282825 Eh
Current gradient norm                   ....     0.134967851 Eh/bohr
Maximum allowed component of the step   ....  0.300
Current trust radius                    ....  0.300
Evaluating the initial hessian          ....  (Almloef) done
Projecting the Hessian                  .... done
Forming the augmented Hessian           .... done
Diagonalizing the augmented Hessian     .... done
Last element of RFO vector              ....  0.966374014
Lowest eigenvalues of augmented Hessian:
 -0.024215090  0.011237653  0.012610609  0.016749160  0.017386575
Length of the computed step             ....  0.266088027
The final length of the internal step   ....  0.266088027
Converting the step to cartesian space:
 Initial RMS(Int)=    0.0443480046
Transforming coordinates:
 Iter   0:  RMS(Cart)=    0.0652300945 RMS(Int)=    1.4758819322
 Iter   1:  RMS(Cart)=    0.0018583805 RMS(Int)=    0.0018705102
 Iter   2:  RMS(Cart)=    0.0001125824 RMS(Int)=    0.0000895420
 Iter   3:  RMS(Cart)=    0.0000068414 RMS(Int)=    0.0000072266
 Iter   4:  RMS(Cart)=    0.0000005074 RMS(Int)=    0.0000004106
 Iter   5:  RMS(Cart)=    0.0000000341 RMS(Int)=    0.0000000364
done
Storing new coordinates                 .... done

                                .--------------------.
          ----------------------|Geometry convergence|-------------------------
          Item                value                   Tolerance       Converged
          ---------------------------------------------------------------------
          RMS gradient        0.0179601282            0.0001000000      NO
          MAX gradient        0.0577166755            0.0003000000      NO
          RMS step            0.0443480046            0.0020000000      NO
          MAX step            0.1091612145            0.0040000000      NO
          ........................................................
          Max(Bonds)      0.0578      Max(Angles)    5.27
          Max(Dihed)        4.49      Max(Improp)    0.00
          ---------------------------------------------------------------------

The optimization has not yet converged - more geometry cycles are needed


    ---------------------------------------------------------------------------
                         Redundant Internal Coordinates
                            (Angstroem and degrees)

        Definition                    Value    dE/dq     Step     New-Value
    ----------------------------------------------------------------------------
     1. B(C   1,N   0)                1.4490 -0.010647  0.0119    1.4609   
     2. B(H   2,N   0)                1.0007 -0.018581  0.0208    1.0216   
     3. B(H   3,N   0)                1.0007 -0.014431  0.0162    1.0169   
     4. B(C   4,C   1)                1.5220  0.009894 -0.0128    1.5092   
     5. B(H   5,C   1)                1.0972 -0.014824  0.0209    1.1181   
     6. B(H   6,C   1)                1.0972 -0.011103  0.0157    1.1129   
     7. B(O   7,C   4)                1.2584  0.057717 -0.0328    1.2256   
     8. B(O   8,C   4)                1.4300  0.055383 -0.0578    1.3722   
     9. B(H   9,O   8)                0.9600 -0.018021  0.0175    0.9775   
    10. A(C   1,N   0,H   3)          105.52 -0.020965    3.07    108.59   
    11. A(H   2,N   0,H   3)          130.57  0.028130   -5.27    125.30   
    12. A(C   1,N   0,H   2)          105.52 -0.022474    3.30    108.82   
    13. A(C   4,C   1,H   5)          108.58  0.005658   -1.20    107.38   
    14. A(N   0,C   1,H   5)          109.42 -0.013722    3.35    112.77   
    15. A(N   0,C   1,H   6)          109.42 -0.003645    0.85    110.26   
    16. A(H   5,C   1,H   6)          110.44  0.006273   -1.98    108.46   
    17. A(C   4,C   1,H   6)          108.58  0.000134   -0.64    107.94   
    18. A(N   0,C   1,C   4)          110.40  0.005585   -0.45    109.95   
    19. A(O   7,C   4,O   8)          120.00 -0.010542    1.44    121.44   
    20. A(C   1,C   4,O   8)          120.00  0.027961   -3.81    116.19   
    21. A(C   1,C   4,O   7)          120.00 -0.017419    2.37    122.37   
    22. A(C   4,O   8,H   9)          109.50  0.019046   -2.88    106.62   
    23. D(H   6,C   1,N   0,H   2)   -152.00 -0.000921    0.27   -151.73   
    24. D(H   5,C   1,N   0,H   3)    -54.16 -0.000299    1.93    -52.23   
    25. D(H   6,C   1,N   0,H   3)     66.96 -0.003425    2.12     69.08   
    26. D(H   5,C   1,N   0,H   2)     86.89  0.002204    0.08     86.97   
    27. D(C   4,C   1,N   0,H   2)    -32.56  0.000394   -0.26    -32.82   
    28. D(C   4,C   1,N   0,H   3)   -173.60 -0.002109    1.59   -172.01   
    29. D(O   7,C   4,C   1,N   0)      0.00 -0.004974    4.12      4.12   
    30. D(O   8,C   4,C   1,H   6)    -60.05 -0.004394    1.99    -58.07   
    31. D(O   8,C   4,C   1,H   5)     60.05  0.006549   -1.47     58.58   
    32. D(O   8,C   4,C   1,N   0)    180.00 -0.003375    1.62    181.62   
    33. D(O   7,C   4,C   1,H   6)    119.95 -0.005994    4.49    124.43   
    34. D(O   7,C   4,C   1,H   5)   -119.95  0.004949    1.03   -118.92   
    35. D(H   9,O   8,C   4,O   7)      0.00  0.000842   -1.31     -1.31   
    36. D(H   9,O   8,C   4,C   1)    180.00 -0.000758    1.19    181.19   
    ----------------------------------------------------------------------------

         *************************************************************
         *                GEOMETRY OPTIMIZATION CYCLE   2            *
         *************************************************************
---------------------------------
CARTESIAN COORDINATES (ANGSTROEM)
---------------------------------
  N      0.041694   -1.914408    0.017697
  C     -0.794994   -0.717058   -0.003373
  H      0.905446   -1.721285   -0.492462
  H     -0.553146   -2.727314   -0.121894
  C      0.072650    0.517742    0.004924
  H     -1.446924   -0.660736   -0.910010
  H     -1.444993   -0.685277    0.899373
  O      1.295779    0.460245   -0.047837
  O     -0.587029    1.720887    0.021477
  H      0.099598    2.416453    0.005725

----------------------------
CARTESIAN COORDINATES (A.U.)
----------------------------
  NO LB      ZA    FRAG     MASS         X           Y           Z
   0 N     7.0000    0    14.007    0.078790   -3.617707    0.033443
   1 C     6.0000    0    12.011   -1.502321   -1.355043   -0.006374
   2 H     1.0000    0     1.008    1.711044   -3.252757   -0.930619
   3 H     1.0000    0     1.008   -1.045295   -5.153876   -0.230346
   4 C     6.0000    0    12.011    0.137288    0.978391    0.009305
   5 H     1.0000    0     1.008   -2.734290   -1.248611   -1.719671
   6 H     1.0000    0     1.008   -2.730641   -1.294985    1.699569
   7 O     8.0000    0    15.999    2.448668    0.869738   -0.090399
   8 O     8.0000    0    15.999   -1.109324    3.252005    0.040586
   9 H     1.0000    0     1.008    0.188213    4.566434    0.010819

--------------------------------
INTERNAL COORDINATES (ANGSTROEM)
--------------------------------
 N      0   0   0     0.000000000000     0.00000000     0.00000000
 C      1   0   0     1.460869066917     0.00000000     0.00000000
 H      1   2   0     1.021580509518   108.79015839     0.00000000
 H      1   2   3     1.016924768111   108.55327236   220.77834062
 C      2   1   3     1.509174209664   109.95334328   327.19307906
 H      2   1   3     1.118112793255   112.76299880    86.97290196
 H      2   1   3     1.112860734275   110.25678742   208.29708247
 O      5   2   1     1.225616353961   122.35245115     4.11441559
 O      5   2   1     1.372226884970   116.17185415   181.60891989
 H      9   5   2     0.977505320082   106.61967246   181.18129078

---------------------------
INTERNAL COORDINATES (A.U.)
---------------------------
 N      0   0   0     0.000000000000     0.00000000     0.00000000
 C      1   0   0     2.760642453990     0.00000000     0.00000000
 H      1   2   0     1.930507386740   108.79015839     0.00000000
 H      1   2   3     1.921709310532   108.55327236   220.77834062
 C      2   1   3     2.851925944642   109.95334328   327.19307906
 H      2   1   3     2.112926966086   112.76299880    86.97290196
 H      2   1   3     2.103002012975   110.25678742   208.29708247
 O      5   2   1     2.316079254242   122.35245115     4.11441559
 O      5   2   1     2.593133006197   116.17185415   181.60891989
 H      9   5   2     1.847217349406   106.61967246   181.18129078

 One Electron integrals                  ... done
 Pre-screening matrix                    ... done

Diagonalization of the overlap matrix:
Smallest eigenvalue                        ... 2.318e-03
Time for diagonalization                   ...    0.003 sec
Threshold for overlap eigenvalues          ... 1.000e-08
Number of eigenvalues below threshold      ... 0
Time for construction of square roots      ...    0.001 sec
Total time needed                          ...    0.004 sec

-------------------
DFT GRID GENERATION
-------------------

General Integration Accuracy     IntAcc      ...  4.340
Radial Grid Type                 RadialGrid  ... Gauss-Chebyshev
Angular Grid (max. acc.)         AngularGrid ... Lebedev-110
Angular grid pruning method      GridPruning ... 3 (G Style)
Weight generation scheme         WeightScheme... Becke
Basis function cutoff            BFCut       ...    1.0000e-11
Integration weight cutoff        WCut        ...    1.0000e-14
Grids for H and He will be reduced by one unit

# of grid points (after initial pruning)     ...  12416 (   0.0 sec)
# of grid points (after weights+screening)   ...  11821 (   0.0 sec)
nearest neighbour list constructed           ...    0.0 sec
Grid point re-assignment to atoms done       ...    0.0 sec
Grid point division into batches done        ...    0.0 sec
Reduced shell lists constructed in    0.1 sec

Total number of grid points                  ...    11821
Total number of batches                      ...      189
Average number of points per batch           ...       62
Average number of grid points per atom       ...     1182
Average number of shells per batch           ...    35.86 (79.70%)
Average number of basis functions per batch  ...    75.75 (79.73%)
Average number of large shells per batch     ...    29.87 (83.28%)
Average number of large basis fcns per batch ...    61.87 (81.68%)
Maximum spatial batch extension              ...  19.92, 19.37, 25.62 au
Average spatial batch extension              ...   4.11,  3.88,  4.58 au

Time for grid setup =    0.132 sec

--------------
SCF ITERATIONS
--------------
ITER       Energy         Delta-E        Max-DP      RMS-DP      [F,P]     Damp
               ***  Starting incremental Fock matrix formation  ***
  0   -283.8868463184   0.000000000000 0.00669583  0.00044305  0.0227797 0.7000
                      *** Initiating the SOSCF procedure ***
                      *** Re-Reading the Fockian *** 
                      *** Removing any level shift *** 
ITER      Energy       Delta-E        Grad      Rot      Max-DP    RMS-DP
  1   -283.88853911  -0.0016927957  0.002594  0.002594  0.020720  0.001320
               *** Restarting incremental Fock matrix formation ***
  2   -283.89239416  -0.0038550437  0.002003  0.008307  0.014530  0.000585
  3   -283.89223151   0.0001626523  0.005707  0.008612  0.009137  0.000330
  4   -283.89250337  -0.0002718672  0.002634  0.004872  0.010322  0.000300
  5   -283.89239143   0.0001119446  0.002922  0.002729  0.007834  0.000205
  6   -283.89255045  -0.0001590211  0.000274  0.000645  0.001391  0.000053
  7   -283.89254735   0.0000030946  0.000562  0.000482  0.000958  0.000035
  8   -283.89255190  -0.0000045501  0.000050  0.000079  0.000207  0.000010
  9   -283.89255185   0.0000000548  0.000093  0.000042  0.000138  0.000006
 10   -283.89255196  -0.0000001084  0.000007  0.000013  0.000029  0.000002
 11   -283.89255196   0.0000000009  0.000010  0.000008  0.000017  0.000001
                  ***Gradient check signals convergence***
              ***Rediagonalizing the Fockian in SOSCF/NRSCF***

               *****************************************************
               *                     SUCCESS                       *
               *           SCF CONVERGED AFTER  12 CYCLES          *
               *****************************************************

Setting up the final grid:

General Integration Accuracy     IntAcc      ...  4.670
Radial Grid Type                 RadialGrid  ... Gauss-Chebyshev
Angular Grid (max. acc.)         AngularGrid ... Lebedev-302
Angular grid pruning method      GridPruning ... 3 (G Style)
Weight generation scheme         WeightScheme... Becke
Basis function cutoff            BFCut       ...    1.0000e-11
Integration weight cutoff        WCut        ...    1.0000e-14
Grids for H and He will be reduced by one unit

# of grid points (after initial pruning)     ...  48030 (   0.0 sec)
# of grid points (after weights+screening)   ...  45351 (   0.1 sec)
nearest neighbour list constructed           ...    0.0 sec
Grid point re-assignment to atoms done       ...    0.0 sec
Grid point division into batches done        ...    0.1 sec
Reduced shell lists constructed in    0.4 sec

Total number of grid points                  ...    45351
Total number of batches                      ...      712
Average number of points per batch           ...       63
Average number of grid points per atom       ...     4535
Average number of shells per batch           ...    32.73 (72.73%)
Average number of basis functions per batch  ...    68.68 (72.29%)
Average number of large shells per batch     ...    26.73 (81.69%)
Average number of large basis fcns per batch ...    54.85 (79.87%)
Maximum spatial batch extension              ...  21.43, 19.84, 21.58 au
Average spatial batch extension              ...   2.80,  2.66,  2.93 au

Final grid set up in    0.5 sec
Final integration                            ... done (   0.4 sec)
Change in XC energy                          ...    -0.000461794
Integrated number of electrons               ...    40.000002394
Previous integrated no of electrons          ...    39.997262737
Total Energy       :         -283.89301375 Eh           -7725.12164 eV
  Last Energy change         ...   -1.9000e-09  Tolerance :   1.0000e-08
  Last MAX-Density change    ...    6.9889e-06  Tolerance :   1.0000e-07
             **** THE GBW FILE WAS UPDATED (3-gtt_opt.gbw) ****
             **** DENSITY FILE WAS UPDATED (3-gtt_opt.scfp.tmp) ****
             **** ENERGY FILE WAS UPDATED (3-gtt_opt.en.tmp) ****
Total SCF time: 0 days 0 hours 0 min 4 sec 

-------------------------   --------------------
FINAL SINGLE POINT ENERGY      -283.893013753457
-------------------------   --------------------

------------------------------------------------------------------------------
                         ORCA SCF GRADIENT CALCULATION
------------------------------------------------------------------------------

Gradient of the Kohn-Sham DFT energy:
Kohn-Sham wavefunction type      ... RKS
Hartree-Fock exchange scaling    ...    0.000
Number of operators              ...    1
Number of atoms                  ...   10
Basis set dimensions             ...   95
Integral neglect threshold       ... 2.5e-11
Integral primitive cutoff        ... 2.5e-12

Nuclear repulsion gradient       ... done
One Electron Gradient            
  ECP gradient                   ... done
Pre-screening matrix             ... done
RI-J gradient                    ... done
Exchange-correlation gradient    ... done

------------------
CARTESIAN GRADIENT
------------------

   1   N   :    0.013830694   -0.027038065   -0.019652899
   2   C   :   -0.005758058    0.010240018    0.000083223
   3   H   :    0.001157280    0.014173125    0.006305543
   4   H   :   -0.012005115    0.007273199    0.011017893
   5   C   :   -0.019538283   -0.014772741    0.003172509
   6   H   :    0.005398199   -0.006026232   -0.001292745
   7   H   :    0.004385469   -0.002236006    0.001766139
   8   O   :    0.010180746   -0.001479854    0.000196724
   9   O   :    0.006666781    0.019072262   -0.001792840
  10   H   :   -0.004317712    0.000794294    0.000196455

Difference to translation invariance:
           :    0.0000000000   -0.0000000000    0.0000000000

Norm of the cartesian gradient     ...    0.0569922449
RMS gradient                       ...    0.0104053127
MAX gradient                       ...    0.0270380653

-------
TIMINGS
-------

Total SCF gradient time            ...        2.246 sec

One electron gradient       ....       0.030 sec  (  1.3%)
Prescreening matrices       ....       0.039 sec  (  1.7%)
RI-J Coulomb gradient       ....       0.370 sec  ( 16.5%)
XC gradient                 ....       1.709 sec  ( 76.1%)
------------------------------------------------------------------------------
                         ORCA GEOMETRY RELAXATION STEP
------------------------------------------------------------------------------

Reading the OPT-File                    .... done
Getting information on internals        .... done
Copying old internal coords+grads       .... done
Making the new internal coordinates     .... (new redundants).... done
Validating the new internal coordinates .... (new redundants).... done
Calculating the B-matrix                .... done
Calculating the G,G- and P matrices     .... done
Transforming gradient to internals      .... done
Projecting the internal gradient        .... done
Number of atoms                         ....  10
Number of internal coordinates          ....  36
Current Energy                          ....  -283.893013753 Eh
Current gradient norm                   ....     0.056992245 Eh/bohr
Maximum allowed component of the step   ....  0.300
Current trust radius                    ....  0.300
Updating the Hessian (BFGS)             .... done
Forming the augmented Hessian           .... done
Diagonalizing the augmented Hessian     .... done
Last element of RFO vector              ....  0.960252975
Lowest eigenvalues of augmented Hessian:
 -0.009189777  0.011301235  0.012843609  0.016751667  0.017381657
Length of the computed step             ....  0.290685060
The final length of the internal step   ....  0.290685060
Converting the step to cartesian space:
 Initial RMS(Int)=    0.0484475100
Transforming coordinates:
 Iter   0:  RMS(Cart)=    0.0600538003 RMS(Int)=    0.0484558045
 Iter   1:  RMS(Cart)=    0.0029549287 RMS(Int)=    1.0467727010
 Iter   2:  RMS(Cart)=    0.0001624882 RMS(Int)=    0.0001583671
 Iter   3:  RMS(Cart)=    0.0000173327 RMS(Int)=    0.0000139490
 Iter   4:  RMS(Cart)=    0.0000010535 RMS(Int)=    0.0000010676
 Iter   5:  RMS(Cart)=    0.0000001077 RMS(Int)=    0.0000000891
 Iter   6:  RMS(Cart)=    0.0000000070 RMS(Int)=    0.0000000073
done
Storing new coordinates                 .... done

                                .--------------------.
          ----------------------|Geometry convergence|-------------------------
          Item                value                   Tolerance       Converged
          ---------------------------------------------------------------------
          Energy change      -0.0167309289            0.0000050000      NO
          RMS gradient        0.0068087416            0.0001000000      NO
          MAX gradient        0.0186839295            0.0003000000      NO
          RMS step            0.0484475100            0.0020000000      NO
          MAX step            0.1296074883            0.0040000000      NO
          ........................................................
          Max(Bonds)      0.0352      Max(Angles)    7.43
          Max(Dihed)        5.99      Max(Improp)    0.00
          ---------------------------------------------------------------------

The optimization has not yet converged - more geometry cycles are needed


    ---------------------------------------------------------------------------
                         Redundant Internal Coordinates
                            (Angstroem and degrees)

        Definition                    Value    dE/dq     Step     New-Value
    ----------------------------------------------------------------------------
     1. B(C   1,N   0)                1.4609  0.006263 -0.0096    1.4513   
     2. B(H   2,N   0)                1.0216  0.000510  0.0019    1.0235   
     3. B(H   3,N   0)                1.0169 -0.000305  0.0028    1.0197   
     4. B(C   4,C   1)                1.5092 -0.001067  0.0005    1.5097   
     5. B(H   5,C   1)                1.1181 -0.002396  0.0081    1.1263   
     6. B(H   6,C   1)                1.1129 -0.001199  0.0047    1.1176   
     7. B(O   7,C   4)                1.2256  0.010219 -0.0142    1.2115   
     8. B(O   8,C   4)                1.3722  0.016274 -0.0352    1.3371   
     9. B(H   9,O   8)                0.9775 -0.002474  0.0063    0.9838   
    10. A(C   1,N   0,H   3)          108.55 -0.013293    2.92    111.48   
    11. A(H   2,N   0,H   3)          125.25  0.018684   -7.43    117.82   
    12. A(C   1,N   0,H   2)          108.79 -0.010300    2.20    110.99   
    13. A(C   4,C   1,H   5)          107.36  0.003590   -1.35    106.01   
    14. A(N   0,C   1,H   5)          112.76 -0.007031    3.16    115.93   
    15. A(N   0,C   1,H   6)          110.26 -0.001123    0.69    110.94   
    16. A(H   5,C   1,H   6)          108.41  0.003911   -2.38    106.03   
    17. A(C   4,C   1,H   6)          107.94 -0.000569   -0.24    107.70   
    18. A(N   0,C   1,C   4)          109.95  0.001589   -0.00    109.95   
    19. A(O   7,C   4,O   8)          121.43 -0.007057    1.71    123.14   
    20. A(C   1,C   4,O   8)          116.17  0.016333   -4.10    112.07   
    21. A(C   1,C   4,O   7)          122.35 -0.009289    2.35    124.70   
    22. A(C   4,O   8,H   9)          106.62  0.006717   -2.01    104.61   
    23. D(H   6,C   1,N   0,H   2)   -151.70  0.001742   -1.74   -153.44   
    24. D(H   5,C   1,N   0,H   3)    -52.25 -0.002219    4.25    -48.00   
    25. D(H   6,C   1,N   0,H   3)     69.08 -0.002834    3.79     72.87   
    26. D(H   5,C   1,N   0,H   2)     86.97  0.002357   -1.28     85.69   
    27. D(C   4,C   1,N   0,H   2)    -32.81  0.001334   -1.61    -34.41   
    28. D(C   4,C   1,N   0,H   3)   -172.03 -0.003242    3.93   -168.10   
    29. D(O   7,C   4,C   1,N   0)      4.11 -0.002192    1.96      6.08   
    30. D(O   8,C   4,C   1,H   6)    -58.08 -0.003451    5.99    -52.09   
    31. D(O   8,C   4,C   1,H   5)     58.60  0.002696    2.27     60.87   
    32. D(O   8,C   4,C   1,N   0)   -178.39 -0.002671    5.29   -173.10   
    33. D(O   7,C   4,C   1,H   6)    124.42 -0.002971    2.66    127.08   
    34. D(O   7,C   4,C   1,H   5)   -118.90  0.003176   -1.06   -119.96   
    35. D(H   9,O   8,C   4,O   7)     -1.30 -0.000364    2.01      0.71   
    36. D(H   9,O   8,C   4,C   1)   -178.82  0.000179   -1.33   -180.15   
    ----------------------------------------------------------------------------

         *************************************************************
         *                GEOMETRY OPTIMIZATION CYCLE   3            *
         *************************************************************
---------------------------------
CARTESIAN COORDINATES (ANGSTROEM)
---------------------------------
  N      0.029514   -1.900618    0.052954
  C     -0.784921   -0.701246   -0.014101
  H      0.903732   -1.780413   -0.465563
  H     -0.522368   -2.738255   -0.130185
  C      0.099789    0.521978   -0.030247
  H     -1.455017   -0.610783   -0.914782
  H     -1.455472   -0.623466    0.876591
  O      1.309122    0.498188   -0.097852
  O     -0.605807    1.654331    0.057351
  H      0.069508    2.369535    0.039454

----------------------------
CARTESIAN COORDINATES (A.U.)
----------------------------
  NO LB      ZA    FRAG     MASS         X           Y           Z
   0 N     7.0000    0    14.007    0.055773   -3.591647    0.100069
   1 C     6.0000    0    12.011   -1.483286   -1.325163   -0.026647
   2 H     1.0000    0     1.008    1.707806   -3.364493   -0.879787
   3 H     1.0000    0     1.008   -0.987132   -5.174552   -0.246014
   4 C     6.0000    0    12.011    0.188574    0.986395   -0.057159
   5 H     1.0000    0     1.008   -2.749584   -1.154213   -1.728688
   6 H     1.0000    0     1.008   -2.750444   -1.178180    1.656517
   7 O     8.0000    0    15.999    2.473882    0.941439   -0.184913
   8 O     8.0000    0    15.999   -1.144809    3.126232    0.108379
   9 H     1.0000    0     1.008    0.131351    4.477772    0.074557

--------------------------------
INTERNAL COORDINATES (ANGSTROEM)
--------------------------------
 N      0   0   0     0.000000000000     0.00000000     0.00000000
 C      1   0   0     1.451307281734     0.00000000     0.00000000
 H      1   2   0     1.023507392676   111.02999352     0.00000000
 H      1   2   3     1.019680802975   111.52130740   226.34436265
 C      2   1   3     1.509718223530   109.95146856   325.55709185
 H      2   1   3     1.126250211835   115.92634491    85.67692190
 H      2   1   3     1.117595928541   110.94018534   206.55158341
 O      5   2   1     1.211454927339   124.72718577     6.06275507
 O      5   2   1     1.337072170571   112.10038609   186.89941995
 H      9   5   2     0.983812539184   104.60979669   179.86960834

---------------------------
INTERNAL COORDINATES (A.U.)
---------------------------
 N      0   0   0     0.000000000000     0.00000000     0.00000000
 C      1   0   0     2.742573298643     0.00000000     0.00000000
 H      1   2   0     1.934148668202   111.02999352     0.00000000
 H      1   2   3     1.926917461640   111.52130740   226.34436265
 C      2   1   3     2.852953981861   109.95146856   325.55709185
 H      2   1   3     2.128304458639   115.92634491    85.67692190
 H      2   1   3     2.111950233328   110.94018534   206.55158341
 O      5   2   1     2.289318036261   124.72718577     6.06275507
 O      5   2   1     2.526700223667   112.10038609   186.89941995
 H      9   5   2     1.859136266176   104.60979669   179.86960834

 One Electron integrals                  ... done
 Pre-screening matrix                    ... done

Diagonalization of the overlap matrix:
Smallest eigenvalue                        ... 2.415e-03
Time for diagonalization                   ...    0.004 sec
Threshold for overlap eigenvalues          ... 1.000e-08
Number of eigenvalues below threshold      ... 0
Time for construction of square roots      ...    0.001 sec
Total time needed                          ...    0.005 sec

-------------------
DFT GRID GENERATION
-------------------

General Integration Accuracy     IntAcc      ...  4.340
Radial Grid Type                 RadialGrid  ... Gauss-Chebyshev
Angular Grid (max. acc.)         AngularGrid ... Lebedev-110
Angular grid pruning method      GridPruning ... 3 (G Style)
Weight generation scheme         WeightScheme... Becke
Basis function cutoff            BFCut       ...    1.0000e-11
Integration weight cutoff        WCut        ...    1.0000e-14
Grids for H and He will be reduced by one unit

# of grid points (after initial pruning)     ...  12416 (   0.0 sec)
# of grid points (after weights+screening)   ...  11819 (   0.0 sec)
nearest neighbour list constructed           ...    0.0 sec
Grid point re-assignment to atoms done       ...    0.0 sec
Grid point division into batches done        ...    0.0 sec
Reduced shell lists constructed in    0.1 sec

Total number of grid points                  ...    11819
Total number of batches                      ...      190
Average number of points per batch           ...       62
Average number of grid points per atom       ...     1182
Average number of shells per batch           ...    35.87 (79.72%)
Average number of basis functions per batch  ...    75.69 (79.67%)
Average number of large shells per batch     ...    29.88 (83.29%)
Average number of large basis fcns per batch ...    61.85 (81.72%)
Maximum spatial batch extension              ...  21.07, 19.46, 25.63 au
Average spatial batch extension              ...   4.32,  3.76,  4.40 au

Time for grid setup =    0.156 sec

--------------
SCF ITERATIONS
--------------
ITER       Energy         Delta-E        Max-DP      RMS-DP      [F,P]     Damp
               ***  Starting incremental Fock matrix formation  ***
  0   -283.8927004186   0.000000000000 0.00633097  0.00040951  0.0209748 0.7000
                      *** Initiating the SOSCF procedure ***
                      *** Re-Reading the Fockian *** 
                      *** Removing any level shift *** 
ITER      Energy       Delta-E        Grad      Rot      Max-DP    RMS-DP
  1   -283.89418915  -0.0014887332  0.002184  0.002184  0.020954  0.001262
               *** Restarting incremental Fock matrix formation ***
  2   -283.89775885  -0.0035697017  0.001636  0.006473  0.007993  0.000425
  3   -283.89768634   0.0000725128  0.004734  0.006532  0.006834  0.000232
  4   -283.89781551  -0.0001291691  0.001806  0.002564  0.006964  0.000207
  5   -283.89778430   0.0000312091  0.001986  0.001937  0.005021  0.000130
  6   -283.89784225  -0.0000579446  0.000231  0.000467  0.001119  0.000043
  7   -283.89784046   0.0000017901  0.000458  0.000340  0.000737  0.000029
  8   -283.89784322  -0.0000027635  0.000019  0.000042  0.000116  0.000006
  9   -283.89784321   0.0000000080  0.000026  0.000024  0.000082  0.000003
 10   -283.89784324  -0.0000000277  0.000007  0.000010  0.000019  0.000001
 11   -283.89784324   0.0000000004  0.000007  0.000005  0.000012  0.000001
                  ***Gradient check signals convergence***
              ***Rediagonalizing the Fockian in SOSCF/NRSCF***

               *****************************************************
               *                     SUCCESS                       *
               *           SCF CONVERGED AFTER  12 CYCLES          *
               *****************************************************

Setting up the final grid:

General Integration Accuracy     IntAcc      ...  4.670
Radial Grid Type                 RadialGrid  ... Gauss-Chebyshev
Angular Grid (max. acc.)         AngularGrid ... Lebedev-302
Angular grid pruning method      GridPruning ... 3 (G Style)
Weight generation scheme         WeightScheme... Becke
Basis function cutoff            BFCut       ...    1.0000e-11
Integration weight cutoff        WCut        ...    1.0000e-14
Grids for H and He will be reduced by one unit

# of grid points (after initial pruning)     ...  48030 (   0.0 sec)
# of grid points (after weights+screening)   ...  45345 (   0.1 sec)
nearest neighbour list constructed           ...    0.0 sec
Grid point re-assignment to atoms done       ...    0.0 sec
Grid point division into batches done        ...    0.1 sec
Reduced shell lists constructed in    0.4 sec

Total number of grid points                  ...    45345
Total number of batches                      ...      715
Average number of points per batch           ...       63
Average number of grid points per atom       ...     4534
Average number of shells per batch           ...    32.82 (72.93%)
Average number of basis functions per batch  ...    68.91 (72.53%)
Average number of large shells per batch     ...    26.81 (81.68%)
Average number of large basis fcns per batch ...    54.97 (79.77%)
Maximum spatial batch extension              ...  20.53, 20.69, 20.95 au
Average spatial batch extension              ...   2.83,  2.63,  2.92 au

Final grid set up in    0.5 sec
Final integration                            ... done (   0.5 sec)
Change in XC energy                          ...    -0.000320180
Integrated number of electrons               ...    39.999974561
Previous integrated no of electrons          ...    39.997949168
Total Energy       :         -283.89816342 Eh           -7725.26177 eV
  Last Energy change         ...   -4.7976e-11  Tolerance :   1.0000e-08
  Last MAX-Density change    ...    4.9046e-06  Tolerance :   1.0000e-07
             **** THE GBW FILE WAS UPDATED (3-gtt_opt.gbw) ****
             **** DENSITY FILE WAS UPDATED (3-gtt_opt.scfp.tmp) ****
             **** ENERGY FILE WAS UPDATED (3-gtt_opt.en.tmp) ****
Total SCF time: 0 days 0 hours 0 min 4 sec 

-------------------------   --------------------
FINAL SINGLE POINT ENERGY      -283.898163418396
-------------------------   --------------------

------------------------------------------------------------------------------
                         ORCA SCF GRADIENT CALCULATION
------------------------------------------------------------------------------

Gradient of the Kohn-Sham DFT energy:
Kohn-Sham wavefunction type      ... RKS
Hartree-Fock exchange scaling    ...    0.000
Number of operators              ...    1
Number of atoms                  ...   10
Basis set dimensions             ...   95
Integral neglect threshold       ... 2.5e-11
Integral primitive cutoff        ... 2.5e-12

Nuclear repulsion gradient       ... done
One Electron Gradient            
  ECP gradient                   ... done
Pre-screening matrix             ... done
RI-J gradient                    ... done
Exchange-correlation gradient    ... done

------------------
CARTESIAN GRADIENT
------------------

   1   N   :    0.007988618   -0.012670474   -0.011753394
   2   C   :   -0.002779746    0.010852752    0.002002223
   3   H   :    0.002747247    0.006468210    0.003858338
   4   H   :   -0.006605876    0.002349230    0.006675008
   5   C   :    0.001872173    0.009234471   -0.005538788
   6   H   :    0.000503741   -0.000967186   -0.001660946
   7   H   :    0.000274181   -0.001271195    0.002551756
   8   O   :   -0.011268784    0.000178379    0.003792434
   9   O   :    0.005122525   -0.013573609    0.000098629
  10   H   :    0.002145923   -0.000600577   -0.000025259

Difference to translation invariance:
           :   -0.0000000000   -0.0000000000    0.0000000000

Norm of the cartesian gradient     ...    0.0337412450
RMS gradient                       ...    0.0061602803
MAX gradient                       ...    0.0135736088

-------
TIMINGS
-------

Total SCF gradient time            ...        2.317 sec

One electron gradient       ....       0.033 sec  (  1.4%)
Prescreening matrices       ....       0.041 sec  (  1.8%)
RI-J Coulomb gradient       ....       0.390 sec  ( 16.8%)
XC gradient                 ....       1.726 sec  ( 74.5%)
------------------------------------------------------------------------------
                         ORCA GEOMETRY RELAXATION STEP
------------------------------------------------------------------------------

Reading the OPT-File                    .... done
Getting information on internals        .... done
Copying old internal coords+grads       .... done
Making the new internal coordinates     .... (new redundants).... done
Validating the new internal coordinates .... (new redundants).... done
Calculating the B-matrix                .... done
Calculating the G,G- and P matrices     .... done
Transforming gradient to internals      .... done
Projecting the internal gradient        .... done
[...]
     15       0.000000   0.000000   0.000000   0.000000   0.000000   0.000000
     16       0.000000   0.000000   0.000000   0.000000   0.000000   0.000000
     17       0.000000   0.000000   0.000000   0.000000   0.000000   0.000000
     18       0.000000   0.000000   0.000000   0.000000   0.000000   0.000000
     19       0.000000   0.000000   0.000000   0.000000   0.000000   0.000000
     20       0.000000   0.000000   0.000000   0.000000   0.000000   0.000000
     21       0.000000   0.000000   0.000000   0.000000   0.000000   0.000000
     22       0.000000   0.000000   0.000000   0.000000   0.000000   0.000000
     23       0.000000   0.000000   0.000000   0.000000   0.000000   0.000000
     24       0.000000   0.000000   0.000000   0.000000   0.000000   0.000000
     25       0.000000   0.000000   0.000000   0.000000   0.000000   0.000000
     26       0.000000   0.000000   0.000000   0.000000   0.000000   0.000000
     27       0.000000   0.000000   0.000000   0.000000   0.000000   0.000000
     28       0.000000   0.000000   0.000000   0.000000   0.000000   0.000000
     29       0.000000   0.000000   0.000000   0.000000   0.000000   0.000000
                  6          7          8          9         10         11    
      0      -0.019255   0.006843  -0.249034   0.027063  -0.002689  -0.022758
      1       0.037518  -0.000725  -0.224258  -0.236873   0.068695   0.092141
      2       0.182449  -0.013761   0.040908   0.001760  -0.028253  -0.024559
      3      -0.002986   0.020741   0.119066   0.062989   0.045010  -0.186363
      4      -0.007538   0.001635   0.025544  -0.135949   0.068574  -0.080928
      5      -0.219316  -0.019167   0.058855  -0.006560   0.022449   0.005434
      6       0.037815  -0.281515  -0.020806   0.008724  -0.016688  -0.029972
      7      -0.092115  -0.339340  -0.324133  -0.303283   0.078113   0.279662
      8       0.247163  -0.548986   0.387871  -0.047578  -0.048325   0.007793
      9       0.027872  -0.321047  -0.320034  -0.088972  -0.028172   0.212951
     10      -0.052864  -0.098819   0.037317  -0.123510   0.087785  -0.124057
     11       0.313492   0.616820  -0.437296  -0.111896  -0.035133   0.159305
     12      -0.001778   0.021682   0.143997  -0.091018   0.063796  -0.006727
     13      -0.001768   0.001896   0.020103   0.056454  -0.010112  -0.131626
     14      -0.053818   0.009358  -0.002410   0.153036   0.203292   0.068901
     15       0.333006  -0.004650   0.123244   0.348349   0.383026  -0.149893
     16      -0.120758   0.035064   0.135353  -0.073751   0.315036  -0.002603
     17      -0.445772  -0.009059   0.069426  -0.186772  -0.192428  -0.021006
     18      -0.284388   0.043611   0.128177  -0.218744  -0.241028  -0.193677
     19       0.039399  -0.033043   0.201159  -0.389006  -0.090622  -0.088697
     20      -0.486680   0.001054   0.040940  -0.224564  -0.215388   0.005747
     21      -0.015063   0.022342   0.131900  -0.135080  -0.000441  -0.003431
     22       0.025230   0.038025   0.261642   0.069958  -0.092119   0.218218
     23      -0.114597   0.025054  -0.072184  -0.021889  -0.070222   0.017557
     24       0.026790  -0.022118  -0.088233   0.108074  -0.063979   0.162815
     25      -0.035410  -0.012861  -0.105622   0.252790  -0.042979  -0.124988
     26       0.168981  -0.009373  -0.003731  -0.030886  -0.004406  -0.018865
     27       0.023892  -0.040540  -0.277695   0.337212  -0.333813   0.247890
     28      -0.022543   0.004743   0.046301   0.005655   0.102781  -0.291708
     29       0.227897  -0.000603  -0.097051  -0.361367  -0.621481  -0.675558
                 12         13         14         15         16         17    
      0       0.004509  -0.049660  -0.007050   0.029922   0.065285  -0.055705
      1      -0.026372   0.033841   0.056583  -0.026103  -0.147402   0.044986
      2       0.003649  -0.095171  -0.002953   0.086216   0.009152  -0.011738
      3       0.019252   0.038583   0.245035  -0.014090  -0.065233   0.069534
      4      -0.003820  -0.025861   0.136569   0.039817   0.125885  -0.094352
      5      -0.047413  -0.016413   0.001825  -0.226554   0.005076   0.014877
      6       0.042780   0.353952   0.081416  -0.044114  -0.023027  -0.176682
      7      -0.086078  -0.194307  -0.246682  -0.063007   0.171024   0.334503
      8       0.056779   0.580872   0.086704  -0.081075  -0.084458  -0.157710
      9      -0.008318   0.124747  -0.317881   0.036976   0.360647   0.130325
     10      -0.028751  -0.322303   0.291701   0.079388  -0.398202  -0.072616
     11       0.027278   0.537646  -0.106330  -0.197424   0.158143   0.020473
     12      -0.024561   0.005680  -0.148095   0.038072  -0.013300   0.021136
     13       0.033925  -0.002784  -0.080951  -0.028323  -0.005295  -0.144103
     14      -0.129287   0.041928  -0.041770   0.201488  -0.029017   0.003479
     15      -0.188133  -0.109513   0.211140  -0.609478   0.072066   0.157437
     16      -0.144927   0.147790   0.199928  -0.040909   0.598074  -0.114875
     17       0.084128   0.072728   0.025278   0.185427  -0.057191  -0.042280
     18       0.182349   0.143624   0.253283   0.559174  -0.047624   0.102623
     19       0.112978  -0.037231   0.250409   0.191280   0.477901   0.542757
     20       0.086617   0.092989  -0.012230   0.269434  -0.047017  -0.053703
     21       0.014422  -0.009618  -0.172479  -0.029828  -0.023233   0.064043
     22      -0.034097  -0.008963   0.016729  -0.002682  -0.000276  -0.003664
     23       0.059795  -0.014942   0.052730  -0.038550   0.010465  -0.017966
     24       0.000814  -0.013852   0.066338  -0.013115   0.000402  -0.125781
     25       0.035581   0.026303  -0.112791   0.008574  -0.012219   0.124784
     26       0.107782  -0.004990  -0.011443  -0.027786   0.001595   0.037040
     27      -0.269897   0.022362   0.399572   0.037486   0.028885   0.459873
     28       0.130959   0.001887  -0.419646  -0.034504  -0.039121  -0.395955
     29      -0.859795   0.050577  -0.131725  -0.022833  -0.002801  -0.125132
                 18         19         20         21         22         23    
      0      -0.035402  -0.090946   0.059006  -0.025230  -0.027845  -0.033943
      1      -0.005400   0.039207   0.034105  -0.021189  -0.009803   0.067807
      2      -0.042392   0.052276  -0.001484   0.002377  -0.001329   0.014368
      3       0.046701   0.109555  -0.061399   0.106533  -0.041075   0.000632
      4      -0.031971  -0.131054  -0.076258   0.140328   0.104623  -0.014395
      5       0.016343  -0.037185   0.008809   0.002112  -0.005006   0.024923
      6      -0.079042  -0.266196   0.152181  -0.078756  -0.050241  -0.060017
      7       0.220901   0.414014  -0.294139   0.148687   0.043375  -0.692520
      8      -0.061541  -0.191015   0.091611  -0.052634  -0.028692  -0.199702
      9       0.092929   0.241549  -0.282780   0.188692   0.169411   0.582853
     10      -0.140029  -0.131483   0.282000  -0.166976  -0.139667  -0.190449
     11       0.114946  -0.019705  -0.102157   0.047347   0.021055  -0.280971
     12      -0.000594  -0.016025   0.010847   0.005723   0.009611   0.021144
     13       0.050068   0.021311  -0.193580  -0.192723  -0.080893   0.010603
     14       0.055668  -0.036807  -0.021882  -0.014744  -0.013885  -0.005179
     15       0.118747   0.013391   0.127000  -0.426672   0.489753   0.008174
     16      -0.551326   0.584615   0.348922  -0.241150  -0.290338  -0.008322
     17      -0.038216   0.036381  -0.091996   0.309628  -0.319885   0.025977
     18       0.037193   0.249063   0.064447  -0.384184   0.425728  -0.059887
     19       0.598080  -0.285400   0.358469  -0.335019  -0.330459   0.087536
     20      -0.082200   0.099173   0.050039  -0.355806   0.445787  -0.044356
     21      -0.063433  -0.034809  -0.023940  -0.012605  -0.012395  -0.017390
     22       0.002233   0.001301   0.031769   0.025645   0.009932  -0.003062
     23       0.006371   0.015066   0.007882   0.004245   0.005186   0.004387
     24       0.068498   0.042672   0.031680   0.008070  -0.000783   0.000388
     25      -0.037698  -0.003782   0.069609   0.054807   0.021514  -0.002068
     26      -0.025357  -0.005444  -0.002053   0.001698   0.001802  -0.000202
     27      -0.307681  -0.213308  -0.401278  -0.214127  -0.063643   0.010918
     28       0.294659   0.220487   0.437050   0.236287   0.071443  -0.011883
     29       0.099379   0.077707   0.136363   0.074632   0.014389  -0.002293
                 24         25         26         27         28         29    
      0       0.013143  -0.000058   0.000821   0.033974  -0.060120   0.000270
      1      -0.006910   0.002804   0.000591  -0.025911  -0.052564   0.000208
      2      -0.004569  -0.000819  -0.002042  -0.039746  -0.001518   0.000182
      3      -0.043057  -0.046309  -0.051424  -0.000051  -0.001723  -0.000876
      4      -0.033084  -0.000099   0.007502   0.000582   0.000860  -0.000449
      5       0.006876  -0.062484   0.066524  -0.003380  -0.000308  -0.000246
      6       0.028793  -0.000296  -0.008294  -0.730504   0.444989  -0.000010
      7       0.209815   0.002757  -0.004637  -0.090931   0.041971   0.000667
      8       0.079728   0.004826   0.015498   0.409487  -0.280383   0.000181
      9      -0.188941  -0.009421   0.000705   0.265343   0.404793  -0.002688
     10       0.095900  -0.006530   0.005628   0.433116   0.677342  -0.002922
     11       0.055724   0.009254   0.001152   0.169538   0.304104  -0.001266
     12       0.684929  -0.000931  -0.000828  -0.000274  -0.000010   0.001047
     13       0.027095   0.000678   0.001327   0.000418   0.000282   0.003430
     14      -0.154399  -0.001433   0.001185   0.000159  -0.000266   0.000063
     15      -0.080808   0.522931  -0.052780  -0.000150   0.004325   0.001950
     16      -0.012987  -0.018114  -0.003634   0.006289   0.001290  -0.001129
     17       0.033440   0.843274  -0.047497   0.001646   0.005824   0.002223
     18      -0.113011   0.037281   0.652707  -0.007885   0.001961   0.000461
     19      -0.136474  -0.016922  -0.106048   0.000802  -0.002999  -0.001627
     20      -0.056740  -0.084294  -0.741732   0.012188  -0.003886  -0.000830
     21      -0.426541   0.000835   0.001000   0.000175   0.000067   0.000703
     22      -0.001765  -0.000119  -0.000036   0.000057  -0.000086  -0.000478
     23       0.096608  -0.000167  -0.000095  -0.000116   0.000097  -0.000246
     24      -0.062523  -0.000189   0.000103   0.000246   0.000064   0.039086
     25       0.019924  -0.000437  -0.000265  -0.000049   0.000220   0.046345
     26       0.016462   0.000212  -0.000155  -0.000045   0.000023  -0.006318
     27       0.285445   0.002941   0.001371  -0.001707  -0.002094  -0.637046
     28      -0.277098   0.001773   0.000051  -0.001270  -0.002934  -0.761376
     29      -0.085486  -0.000781  -0.001875   0.000387   0.000367   0.103526


-----------
IR SPECTRUM
-----------

 Mode    freq (cm**-1)   T**2         TX         TY         TZ
-------------------------------------------------------------------
   6:       103.56    2.841895  (  0.675678  -1.507524   0.335745)
   7:       196.90   53.654754  ( -4.647681  -5.418532   1.641137)
   8:       278.86    1.366500  (  0.395940   0.385255  -1.030199)
   9:       455.76   13.066629  (  0.314436  -2.981226  -2.019914)
  10:       509.93   17.950795  ( -1.208938   2.635125  -3.089560)
  11:       619.67   26.739011  ( -1.179579  -4.627480  -1.983439)
  12:       673.41   84.483818  ( -1.535701   0.902152  -9.017292)
  13:       810.80  176.326285  (  6.266914  -7.372802   9.093616)
  14:       832.39   18.578565  ( -0.469088  -4.193314  -0.880135)
  15:       983.40    4.387908  (  0.302450   1.635010  -1.274038)
  16:      1102.86    2.051614  ( -0.694922   1.238351  -0.187576)
  17:      1124.39  183.864686  (  4.679983 -12.517783  -2.295115)
  18:      1177.28   65.617495  ( -1.536557   7.818944   1.456232)
  19:      1218.68    2.598368  (  0.340848   1.452145   0.611119)
  20:      1295.33   28.560494  (  0.868909  -5.251757  -0.473859)
  21:      1401.10   51.167926  ( -2.335621  -6.672768  -1.089480)
  22:      1427.78    2.221973  (  0.795304  -0.768223  -0.999649)
  23:      1561.61   53.016706  (  3.916717  -5.108475  -3.402870)
  24:      1805.45  248.498980  ( 15.153669  -3.162201  -2.977548)
  25:      2842.13   62.723640  ( -4.639930   4.026450  -4.998239)
  26:      2978.52   19.583112  ( -2.832316   1.972808   2.769319)
  27:      3415.12    7.457897  ( -1.742341  -1.677802   1.267724)
  28:      3511.73    7.164471  (  1.973244   1.807298   0.066729)
  29:      3621.50   51.508178  ( -3.271784  -6.377569   0.360863)

The first frequency considered to be a vibration is 6
The total number of vibrations considered is 24


--------------------------
THERMOCHEMISTRY AT 298.15K
--------------------------

Temperature         ... 298.15 K
Pressure            ... 1.00 atm
Total Mass          ... 75.07 AMU

Throughout the following assumptions are being made:
  (1) The electronic state is orbitally nondegenerate
  (2) There are no thermally accessible electronically excited states
  (3) Hindered rotations indicated by low frequency modes are not
      treated as such but are treated as vibrations and this may
      cause some error
  (4) All equations used are the standard statistical mechanics
      equations for an ideal gas
  (5) All vibrations are strictly harmonic

freq.     103.56  E(vib)   ...       0.46 
freq.     196.90  E(vib)   ...       0.35 
freq.     278.86  E(vib)   ...       0.28 
freq.     455.76  E(vib)   ...       0.16 
freq.     509.93  E(vib)   ...       0.14 
freq.     619.67  E(vib)   ...       0.09 
freq.     673.41  E(vib)   ...       0.08 
freq.     810.80  E(vib)   ...       0.05 
freq.     832.39  E(vib)   ...       0.04 
freq.     983.40  E(vib)   ...       0.02 
freq.    1102.86  E(vib)   ...       0.02 
freq.    1124.39  E(vib)   ...       0.01 
freq.    1177.28  E(vib)   ...       0.01 
freq.    1218.68  E(vib)   ...       0.01 
freq.    1295.33  E(vib)   ...       0.01 
freq.    1401.10  E(vib)   ...       0.00 
freq.    1427.78  E(vib)   ...       0.00 
freq.    1561.61  E(vib)   ...       0.00 
freq.    1805.45  E(vib)   ...       0.00 
freq.    2842.13  E(vib)   ...       0.00 
freq.    2978.52  E(vib)   ...       0.00 
freq.    3415.12  E(vib)   ...       0.00 
freq.    3511.73  E(vib)   ...       0.00 
freq.    3621.50  E(vib)   ...       0.00 

------------
INNER ENERGY
------------

The inner energy is: U= E(el) + E(ZPE) + E(vib) + E(rot) + E(trans)
    E(el)   - is the total energy from the electronic structure calculation
              = E(kin-el) + E(nuc-el) + E(el-el) + E(nuc-nuc)
    E(ZPE)  - the the zero temperature vibrational energy from the frequency calculation
    E(vib)  - the the finite temperature correction to E(ZPE) due to population
              of excited vibrational states
    E(rot)  - is the rotational thermal energy
    E(trans)- is the translational thermal energy

Summary of contributions to the inner energy U:
Electronic energy                ...   -283.90106585 Eh
Zero point energy                ...      0.07733958 Eh      48.53 kcal/mol
Thermal vibrational correction   ...      0.00278593 Eh       1.75 kcal/mol
Thermal rotational correction    ...      0.00141627 Eh       0.89 kcal/mol
Thermal translational correction ...      0.00141627 Eh       0.89 kcal/mol
-----------------------------------------------------------------------
Total thermal energy                   -283.81810780 Eh


Summary of corrections to the electronic energy:
(perhaps to be used in another calculation)
Total thermal correction                  0.00561847 Eh       3.53 kcal/mol
Non-thermal (ZPE) correction              0.07733958 Eh      48.53 kcal/mol
-----------------------------------------------------------------------
Total correction                          0.08295805 Eh      52.06 kcal/mol


--------
ENTHALPY
--------

The enthalpy is H = U + kB*T
                kB is Boltzmann's constant
Total free energy                 ...   -283.81810780 Eh 
Thermal Enthalpy correction       ...      0.00094421 Eh       0.59 kcal/mol
-----------------------------------------------------------------------
Total Enthalpy                    ...   -283.81716359 Eh


Vibrational entropy computed according to the QRRHO of S. Grimme
Chem.Eur.J. 2012 18 9955

check  

-------
ENTROPY
-------

The entropy contributions are T*S = T*(S(el)+S(vib)+S(rot)+S(trans)
     S(el)   - electronic entropy
     S(vib)  - vibrational entropy
     S(rot)  - rotational entropy
     S(trans)- translational entropy
The entropies will be listed as mutliplied by the temperature to get
units of energy

Electronic entropy                ...      0.00000000 Eh      0.00 kcal/mol
Vibrational entropy               ...      0.00463768 Eh      2.91 kcal/mol
Rotational entropy                ...      0.01103406 Eh      6.92 kcal/mol
Translational entropy             ...      0.01846507 Eh     11.59 kcal/mol
-----------------------------------------------------------------------
Final entropy term                ...      0.03413681 Eh     21.42 kcal/mol


CAUTION: The rotational entropy is not quite correctly treated here
         because it includes a symmetry number that is not yet correctly
         implemented in ORCA!
For a nonlinear molecule the correct rotational entropy is:
    S(rot) = R*(ln(qrot/sn)+1.5)
    R    = 8.31441 J/mol/K = 1.987191683e-3 kcal/mol/K
    qrot = 79617.5478575
    sn is the rotational symmetry number. We have assumed 3 here
       if it is different for your molecule then you should correct
       the printed rotational entropy by manually evaluating the equation
       as given above

For convenience we print out the resulting values for sn=1 - 12:
 sn= 1  qrot/sn=   79617.5479 T*S(rot)=     7.57 kcal/mol T*S(tot)=    22.07 kcal/mol
 sn= 2  qrot/sn=   39808.7739 T*S(rot)=     7.16 kcal/mol T*S(tot)=    21.66 kcal/mol
 sn= 3  qrot/sn=   26539.1826 T*S(rot)=     6.92 kcal/mol T*S(tot)=    21.42 kcal/mol
 sn= 4  qrot/sn=   19904.3870 T*S(rot)=     6.75 kcal/mol T*S(tot)=    21.25 kcal/mol
 sn= 5  qrot/sn=   15923.5096 T*S(rot)=     6.62 kcal/mol T*S(tot)=    21.12 kcal/mol
 sn= 6  qrot/sn=   13269.5913 T*S(rot)=     6.51 kcal/mol T*S(tot)=    21.01 kcal/mol
 sn= 7  qrot/sn=   11373.9354 T*S(rot)=     6.42 kcal/mol T*S(tot)=    20.92 kcal/mol
 sn= 8  qrot/sn=    9952.1935 T*S(rot)=     6.34 kcal/mol T*S(tot)=    20.84 kcal/mol
 sn= 9  qrot/sn=    8846.3942 T*S(rot)=     6.27 kcal/mol T*S(tot)=    20.77 kcal/mol
 sn=10  qrot/sn=    7961.7548 T*S(rot)=     6.21 kcal/mol T*S(tot)=    20.71 kcal/mol
 sn=11  qrot/sn=    7237.9589 T*S(rot)=     6.15 kcal/mol T*S(tot)=    20.65 kcal/mol
 sn=12  qrot/sn=    6634.7957 T*S(rot)=     6.10 kcal/mol T*S(tot)=    20.60 kcal/mol


-------------------
GIBBS FREE ENTHALPY
-------------------

The Gibbs free enthalpy is G = H - T*S

Total enthalpy                    ...   -283.81716359 Eh 
Total entropy correction          ...     -0.03413681 Eh    -21.42 kcal/mol
-----------------------------------------------------------------------
Final Gibbs free enthalpy         ...   -283.85130040 Eh

For completeness - the Gibbs free enthalpy minus the electronic energy
G-E(el)                           ...      0.04976545 Eh     31.23 kcal/mol


Timings for individual modules:

Sum of individual times         ...      137.447 sec (=   2.291 min)
GTO integral calculation        ...        1.928 sec (=   0.032 min)   1.4 %
SCF iterations                  ...       47.393 sec (=   0.790 min)  34.5 %
SCF Gradient evaluation         ...       23.502 sec (=   0.392 min)  17.1 %
Geometry relaxation             ...        0.511 sec (=   0.009 min)   0.4 %
Analytical frequency calculation...       64.113 sec (=   1.069 min)  46.6 %
                             ****ORCA TERMINATED NORMALLY****
TOTAL RUN TIME: 0 days 0 hours 2 minutes 17 seconds 970 msec
