
                                 *****************
                                 * O   R   C   A *
                                 *****************

           --- An Ab Initio, DFT and Semiempirical electronic structure package ---

                  #######################################################
                  #                        -***-                        #
                  #  Department of molecular theory and spectroscopy    #
                  #              Directorship: Frank Neese              #
                  # Max Planck Institute for Chemical Energy Conversion #
                  #                  D-45470 Muelheim/Ruhr              #
                  #                       Germany                       #
                  #                                                     #
                  #                  All rights reserved                #
                  #                        -***-                        #
                  #######################################################


                         Program Version 4.0.0 -  RELEASE  -


 With contributions from (in alphabetic order):
   Daniel Aravena         : Magnetic Properties
   Michael Atanasov       : Ab Initio Ligand Field Theory
   Ute Becker             : Parallelization
   Martin Brehm           : Molecular dynamics
   Dmytro Bykov           : SCF Hessian
   Vijay G. Chilkuri      : MRCI spin determinant printing
   Dipayan Datta          : RHF DLPNO-CCSD density
   Achintya Kumar Dutta   : EOM-CC, STEOM-CC
   Dmitry Ganyushin       : Spin-Orbit,Spin-Spin,Magnetic field MRCI
   Yang Guo               : DLPNO-NEVPT2, CIM, IAO-localization
   Andreas Hansen         : Spin unrestricted coupled pair/coupled cluster methods
   Lee Huntington         : MR-EOM, pCC
   Robert Izsak           : Overlap fitted RIJCOSX, COSX-SCS-MP3, EOM
   Christian Kollmar      : KDIIS, OOCD, Brueckner-CCSD(T), CCSD density
   Simone Kossmann        : Meta GGA functionals, TD-DFT gradient, OOMP2, MP2 Hessian
   Martin Krupicka        : AUTO-CI
   Dagmar Lenk            : GEPOL surface
   Dimitrios Liakos       : Extrapolation schemes; parallel MDCI
   Dimitrios Manganas     : ROCIS; embedding schemes
   Dimitrios Pantazis     : SARC Basis sets
   Taras Petrenko         : DFT Hessian,TD-DFT gradient, ASA, ECA, R-Raman, ABS, FL, XAS/XES, NRVS
   Peter Pinski           : DLPNO-MP2
   Christoph Reimann      : Effective Core Potentials
   Marius Retegan         : Local ZFS, SOC
   Christoph Riplinger    : Optimizer, TS searches, QM/MM, DLPNO-CCSD(T), (RO)-DLPNO pert. Triples
   Tobias Risthaus        : Range-separated hybrids, TD-DFT gradient, RPA, STAB
   Michael Roemelt        : Restricted open shell CIS
   Masaaki Saitow         : Open-shell DLPNO
   Barbara Sandhoefer     : DKH picture change effects
   Kantharuban Sivalingam : CASSCF convergence, NEVPT2, FIC-MRCI
   Georgi Stoychev        : AutoAux
   Boris Wezisla          : Elementary symmetry handling
   Frank Wennmohs         : Technical directorship


 We gratefully acknowledge several colleagues who have allowed us to
 interface, adapt or use parts of their codes:
   Stefan Grimme, W. Hujo, H. Kruse,             : VdW corrections, initial TS optimization,
                  C. Bannwarth                     DFT functionals, gCP, sTDA/sTD-DF
   Ed Valeev                                     : LibInt (2-el integral package), F12 methods
   Garnet Chan, S. Sharma, J. Yang, R. Olivares  : DMRG
   Ulf Ekstrom                                   : XCFun DFT Library
   Mihaly Kallay                                 : mrcc  (arbitrary order and MRCC methods)
   Jiri Pittner, Ondrej Demel                    : Mk-CCSD
   Frank Weinhold                                : gennbo (NPA and NBO analysis)
   Christopher J. Cramer and Donald G. Truhlar   : smd solvation model


 Your calculation uses the libint2 library for the computation of 2-el integrals
 For citations please refer to: http://libint.valeyev.net

 This ORCA versions uses:
   CBLAS   interface :  Fast vector & matrix operations
   LAPACKE interface :  Fast linear algebra routines
   SCALAPACK package :  Parallel linear algebra routines


Your calculation utilizes the basis: def2-SVP
   F. Weigend and R. Ahlrichs, Phys. Chem. Chem. Phys. 7, 3297 (2005).

Your calculation utilizes the auxiliary basis: def2/J
   F. Weigend, Phys. Chem. Chem. Phys. 8, 1057 (2006).

================================================================================
                                        WARNINGS
                       Please study these warnings very carefully!
================================================================================

Warning: TCutStore was < 0. Adjusted to Thresh (uncritical)

WARNING: Geometry Optimization
  ===> : Switching off AutoStart
         For restart on a previous wavefunction, please use MOREAD

INFO   : the flag for use of LIBINT has been found!

================================================================================
                                       INPUT FILE
================================================================================
NAME = 4-tct_opt.in
|  1> ! rks pbe def2-svp opt anfreq
|  2> 
|  3> * xyz 0 1
|  4> N                     0.21809  -1.84603   0.
|  5> C                    -0.77997  -0.79559   0.
|  6> H                     0.51748  -1.93228   0.92982
|  7> H                     0.51748  -1.93228  -0.92982
|  8> C                    -0.11126   0.57149   0.
|  9> H                    -1.39982  -0.87166  -0.91821
| 10> H                    -1.39982  -0.87166   0.91821
| 11> O                    -0.81377   1.6155    0.
| 12> O                     1.31533   0.66956   0.
| 13> H                     1.5729    1.59428   0.
| 14> *
| 15> 
| 16>                          ****END OF INPUT****
================================================================================

                       *****************************
                       * Geometry Optimization Run *
                       *****************************

Geometry optimization settings:
Update method            Update   .... BFGS
Choice of coordinates    CoordSys .... Redundant Internals
Initial Hessian          InHess   .... Almoef's Model

Convergence Tolerances:
Energy Change            TolE     ....  5.0000e-06 Eh
Max. Gradient            TolMAXG  ....  3.0000e-04 Eh/bohr
RMS Gradient             TolRMSG  ....  1.0000e-04 Eh/bohr
Max. Displacement        TolMAXD  ....  4.0000e-03 bohr
RMS Displacement         TolRMSD  ....  2.0000e-03 bohr

------------------------------------------------------------------------------
                        ORCA OPTIMIZATION COORDINATE SETUP
------------------------------------------------------------------------------

The optimization will be done in new redundant internal coordinates
Making redundant internal coordinates   ...  (new redundants) done
Evaluating the initial hessian          ...  (Almloef) done
Evaluating the coordinates              ...  done
Calculating the B-matrix                .... done
Calculating the G-matrix                .... done
Diagonalizing the G-matrix              .... done
The first mode is                       ....   12
The number of degrees of freedom        ....   24

    -----------------------------------------------------------------
                    Redundant Internal Coordinates


    -----------------------------------------------------------------
         Definition                    Initial Value    Approx d2E/dq
    -----------------------------------------------------------------
      1. B(C   1,N   0)                  1.4490         0.450582   
      2. B(H   2,N   0)                  0.9806         0.482003   
      3. B(H   3,N   0)                  0.9806         0.482003   
      4. B(C   4,C   1)                  1.5219         0.384904   
      5. B(H   5,C   1)                  1.1105         0.334032   
      6. B(H   6,C   1)                  1.1105         0.334032   
      7. B(O   7,C   4)                  1.2584         0.907599   
      8. B(O   8,C   4)                  1.4300         0.483200   
      9. B(H   9,O   8)                  0.9599         0.520106   
     10. A(C   1,N   0,H   3)          105.9057         0.346076   
     11. A(H   2,N   0,H   3)          142.9498         0.313981   
     12. A(C   1,N   0,H   2)          105.9057         0.346076   
     13. A(C   4,C   1,H   5)          107.8669         0.321920   
     14. A(N   0,C   1,H   5)          109.5618         0.328389   
     15. A(N   0,C   1,H   6)          109.5618         0.328389   
     16. A(H   5,C   1,H   6)          111.5586         0.284089   
     17. A(C   4,C   1,H   6)          107.8669         0.321920   
     18. A(N   0,C   1,C   4)          110.3991         0.374811   
     19. A(O   7,C   4,O   8)          120.0039         0.438688   
     20. A(C   1,C   4,O   8)          119.9982         0.379368   
     21. A(C   1,C   4,O   7)          119.9979         0.423898   
     22. A(C   4,O   8,H   9)          109.4971         0.354711   
     23. D(H   6,C   1,N   0,H   2)    -38.2764         0.017320   
     24. D(H   5,C   1,N   0,H   3)     38.2764         0.017320   
     25. D(H   6,C   1,N   0,H   3)    160.9675         0.017320   
     26. D(H   5,C   1,N   0,H   2)   -160.9675         0.017320   
     27. D(C   4,C   1,N   0,H   2)     80.3780         0.017320   
     28. D(C   4,C   1,N   0,H   3)    -80.3780         0.017320   
     29. D(O   7,C   4,C   1,N   0)    180.0000         0.011038   
     30. D(O   8,C   4,C   1,H   6)    119.6832         0.011038   
     31. D(O   8,C   4,C   1,H   5)   -119.6832         0.011038   
     32. D(O   8,C   4,C   1,N   0)      0.0000         0.011038   
     33. D(O   7,C   4,C   1,H   6)    -60.3168         0.011038   
     34. D(O   7,C   4,C   1,H   5)     60.3168         0.011038   
     35. D(H   9,O   8,C   4,O   7)      0.0000         0.016754   
     36. D(H   9,O   8,C   4,C   1)    180.0000         0.016754   
    -----------------------------------------------------------------

Number of atoms                         .... 10
Number of degrees of freedom            .... 36

         *************************************************************
         *                GEOMETRY OPTIMIZATION CYCLE   1            *
         *************************************************************
---------------------------------
CARTESIAN COORDINATES (ANGSTROEM)
---------------------------------
  N      0.218090   -1.846030    0.000000
  C     -0.779970   -0.795590    0.000000
  H      0.517480   -1.932280    0.929820
  H      0.517480   -1.932280   -0.929820
  C     -0.111260    0.571490    0.000000
  H     -1.399820   -0.871660   -0.918210
  H     -1.399820   -0.871660    0.918210
  O     -0.813770    1.615500    0.000000
  O      1.315330    0.669560    0.000000
  H      1.572900    1.594280    0.000000

----------------------------
CARTESIAN COORDINATES (A.U.)
----------------------------
  NO LB      ZA    FRAG     MASS         X           Y           Z
   0 N     7.0000    0    14.007    0.412130   -3.488491    0.000000
   1 C     6.0000    0    12.011   -1.473930   -1.503447    0.000000
   2 H     1.0000    0     1.008    0.977895   -3.651480    1.757105
   3 H     1.0000    0     1.008    0.977895   -3.651480   -1.757105
   4 C     6.0000    0    12.011   -0.210251    1.079960    0.000000
   5 H     1.0000    0     1.008   -2.645276   -1.647199   -1.735165
   6 H     1.0000    0     1.008   -2.645276   -1.647199    1.735165
   7 O     8.0000    0    15.999   -1.537802    3.052853    0.000000
   8 O     8.0000    0    15.999    2.485613    1.265285    0.000000
   9 H     1.0000    0     1.008    2.972350    3.012753    0.000000

--------------------------------
INTERNAL COORDINATES (ANGSTROEM)
--------------------------------
 N      0   0   0     0.000000000000     0.00000000     0.00000000
 C      1   0   0     1.448981696641     0.00000000     0.00000000
 H      1   2   0     0.980631769320   105.90571012     0.00000000
 H      1   2   3     0.980631769320   105.90571012   199.24391630
 C      2   1   3     1.521867533822   110.39906590    80.37804185
 H      2   1   3     1.110454984004   109.56179850   199.03252681
 H      2   1   3     1.110454984004   109.56179850   321.72355689
 O      5   2   1     1.258362896862   119.99788953   180.00000000
 O      5   2   1     1.429956905994   119.99823794     0.00000000
 H      9   5   2     0.959921550597   109.49713399   180.00000000

---------------------------
INTERNAL COORDINATES (A.U.)
---------------------------
 N      0   0   0     0.000000000000     0.00000000     0.00000000
 C      1   0   0     2.738178579716     0.00000000     0.00000000
 H      1   2   0     1.853125482238   105.90571012     0.00000000
 H      1   2   3     1.853125482238   105.90571012   199.24391630
 C      2   1   3     2.875912851029   110.39906590    80.37804185
 H      2   1   3     2.098455803816   109.56179850   199.03252681
 H      2   1   3     2.098455803816   109.56179850   321.72355689
 O      5   2   1     2.377961252158   119.99788953   180.00000000
 O      5   2   1     2.702226935638   119.99823794     0.00000000
 H      9   5   2     1.813988840677   109.49713399   180.00000000

---------------------
BASIS SET INFORMATION
---------------------
There are 4 groups of distinct atoms

 Group   1 Type N   : 7s4p1d contracted to 3s2p1d pattern {511/31/1}
 Group   2 Type C   : 7s4p1d contracted to 3s2p1d pattern {511/31/1}
 Group   3 Type H   : 4s1p contracted to 2s1p pattern {31/1}
 Group   4 Type O   : 7s4p1d contracted to 3s2p1d pattern {511/31/1}

Atom   0N    basis set group =>   1
Atom   1C    basis set group =>   2
Atom   2H    basis set group =>   3
Atom   3H    basis set group =>   3
Atom   4C    basis set group =>   2
Atom   5H    basis set group =>   3
Atom   6H    basis set group =>   3
Atom   7O    basis set group =>   4
Atom   8O    basis set group =>   4
Atom   9H    basis set group =>   3
-------------------------------
AUXILIARY BASIS SET INFORMATION
-------------------------------
There are 4 groups of distinct atoms

 Group   1 Type N   : 12s5p4d2f1g contracted to 6s4p3d1f1g pattern {711111/2111/211/2/1}
 Group   2 Type C   : 12s5p4d2f1g contracted to 6s4p3d1f1g pattern {711111/2111/211/2/1}
 Group   3 Type H   : 5s2p1d contracted to 3s1p1d pattern {311/2/1}
 Group   4 Type O   : 12s5p4d2f1g contracted to 6s4p3d1f1g pattern {711111/2111/211/2/1}

Atom   0N    basis set group =>   1
Atom   1C    basis set group =>   2
Atom   2H    basis set group =>   3
Atom   3H    basis set group =>   3
Atom   4C    basis set group =>   2
Atom   5H    basis set group =>   3
Atom   6H    basis set group =>   3
Atom   7O    basis set group =>   4
Atom   8O    basis set group =>   4
Atom   9H    basis set group =>   3
-------------------------
ECP PARAMETER INFORMATION
-------------------------



------------------------------------------------------------------------------
                           ORCA GTO INTEGRAL CALCULATION
                           -- RI-GTO INTEGRALS CHOSEN --
------------------------------------------------------------------------------

                         BASIS SET STATISTICS AND STARTUP INFO

Gaussian basis set:
 # of primitive gaussian shells          ...   85
 # of primitive gaussian functions       ...  155
 # of contracted shells                  ...   45
 # of contracted basis functions         ...   95
 Highest angular momentum                ...    2
 Maximum contraction depth               ...    5
Auxiliary gaussian basis set:
 # of primitive gaussian shells          ...  160
 # of primitive gaussian functions       ...  430
 # of contracted shells                  ...  100
 # of contracted aux-basis functions     ...  300
 Highest angular momentum                ...    4
 Maximum contraction depth               ...    7
Ratio of auxiliary to basis functions    ...  3.16
Integral package used                  ... LIBINT
 One Electron integrals                  
   ECP integrals                         ... done
 Ordering auxiliary basis shells         ... done
 Integral threshhold             Thresh  ...  2.500e-11
 Primitive cut-off               TCut    ...  2.500e-12
 Pre-screening matrix                    ... done
 Shell pair data                         ... 
 Ordering of the shell pairs             ... done (   0.000 sec) 1021 of 1035 pairs
 Determination of significant pairs      ... done (   0.000 sec)
 Creation of shell pair data             ... done (   0.000 sec)
 Storage of shell pair data              ... done (   0.000 sec)
 Shell pair data done in (   0.001 sec)
 Computing two index integrals           ... done
 Cholesky decomposition of the V-matrix  ... done


Timings:
 Total evaluation time                   ...   0.142 sec (  0.002 min)
 One electron matrix time                ...   0.009 sec (  0.000 min) =  6.4%
 Schwartz matrix evaluation time         ...   0.097 sec (  0.002 min) = 68.6%
 Two index repulsion integral time       ...   0.003 sec (  0.000 min) =  1.8%
 Cholesky decomposition of V             ...   0.001 sec (  0.000 min) =  1.0%
 Three index repulsion integral time     ...   0.000 sec (  0.000 min) =  0.0%

-------------------------------------------------------------------------------
                                 ORCA SCF
-------------------------------------------------------------------------------

------------
SCF SETTINGS
------------
Hamiltonian:
 Density Functional     Method          .... DFT(GTOs)
 Exchange Functional    Exchange        .... PBE
   PBE kappa parameter   XKappa         ....  0.804000
   PBE mue parameter    XMuePBE         ....  0.219520
 Correlation Functional Correlation     .... PBE
   PBE beta parameter  CBetaPBE         ....  0.066725
 LDA part of GGA corr.  LDAOpt          .... PW91-LDA
 Gradients option       PostSCFGGA      .... off
   NL short-range parameter             ....  6.400000
 RI-approximation to the Coulomb term is turned on
   Number of auxiliary basis functions  .... 300


General Settings:
 Integral files         IntName         .... 4-tct_opt
 Hartree-Fock type      HFTyp           .... RHF
 Total Charge           Charge          ....    0
 Multiplicity           Mult            ....    1
 Number of Electrons    NEL             ....   40
 Basis Dimension        Dim             ....   95
 Nuclear Repulsion      ENuc            ....    176.7907229025 Eh

Convergence Acceleration:
 DIIS                   CNVDIIS         .... on
   Start iteration      DIISMaxIt       ....    12
   Startup error        DIISStart       ....  0.200000
   # of expansion vecs  DIISMaxEq       ....     5
   Bias factor          DIISBfac        ....   1.050
   Max. coefficient     DIISMaxC        ....  10.000
 Newton-Raphson         CNVNR           .... off
 SOSCF                  CNVSOSCF        .... on
   Start iteration      SOSCFMaxIt      ....   150
   Startup grad/error   SOSCFStart      ....  0.003300
 Level Shifting         CNVShift        .... on
   Level shift para.    LevelShift      ....    0.2500
   Turn off err/grad.   ShiftErr        ....    0.0010
 Zerner damping         CNVZerner       .... off
 Static damping         CNVDamp         .... on
   Fraction old density DampFac         ....    0.7000
   Max. Damping (<1)    DampMax         ....    0.9800
   Min. Damping (>=0)   DampMin         ....    0.0000
   Turn off err/grad.   DampErr         ....    0.1000
 Fernandez-Rico         CNVRico         .... off

SCF Procedure:
 Maximum # iterations   MaxIter         ....   125
 SCF integral mode      SCFMode         .... Direct
   Integral package                     .... LIBINT
 Reset frequeny         DirectResetFreq ....    20
 Integral Threshold     Thresh          ....  2.500e-11 Eh
 Primitive CutOff       TCut            ....  2.500e-12 Eh

Convergence Tolerance:
 Convergence Check Mode ConvCheckMode   .... Total+1el-Energy
 Convergence forced     ConvForced      .... 0
 Energy Change          TolE            ....  1.000e-08 Eh
 1-El. energy change                    ....  1.000e-05 Eh
 Orbital Gradient       TolG            ....  1.000e-05
 Orbital Rotation angle TolX            ....  1.000e-05
 DIIS Error             TolErr          ....  5.000e-07


Diagonalization of the overlap matrix:
Smallest eigenvalue                        ... 2.487e-03
Time for diagonalization                   ...    0.002 sec
Threshold for overlap eigenvalues          ... 1.000e-08
Number of eigenvalues below threshold      ... 0
Time for construction of square roots      ...    0.000 sec
Total time needed                          ...    0.002 sec

-------------------
DFT GRID GENERATION
-------------------

General Integration Accuracy     IntAcc      ...  4.340
Radial Grid Type                 RadialGrid  ... Gauss-Chebyshev
Angular Grid (max. acc.)         AngularGrid ... Lebedev-110
Angular grid pruning method      GridPruning ... 3 (G Style)
Weight generation scheme         WeightScheme... Becke
Basis function cutoff            BFCut       ...    1.0000e-11
Integration weight cutoff        WCut        ...    1.0000e-14
Grids for H and He will be reduced by one unit

# of grid points (after initial pruning)     ...  12416 (   0.0 sec)
# of grid points (after weights+screening)   ...  11841 (   0.0 sec)
nearest neighbour list constructed           ...    0.0 sec
Grid point re-assignment to atoms done       ...    0.0 sec
Grid point division into batches done        ...    0.0 sec
Reduced shell lists constructed in    0.1 sec

Total number of grid points                  ...    11841
Total number of batches                      ...      190
Average number of points per batch           ...       62
Average number of grid points per atom       ...     1184
Average number of shells per batch           ...    36.06 (80.14%)
Average number of basis functions per batch  ...    75.83 (79.82%)
Average number of large shells per batch     ...    29.93 (83.00%)
Average number of large basis fcns per batch ...    61.77 (81.46%)
Maximum spatial batch extension              ...  19.93, 21.12, 21.15 au
Average spatial batch extension              ...   4.05,  4.20,  4.05 au

Time for grid setup =    0.098 sec

------------------------------
INITIAL GUESS: MODEL POTENTIAL
------------------------------
Loading Hartree-Fock densities                     ... done
Calculating cut-offs                               ... done
Setting up the integral package                    ... done
Initializing the effective Hamiltonian             ... done
Starting the Coulomb interaction                   ... done (   0.0 sec)
Reading the grid                                   ... done
Mapping shells                                     ... done
Starting the XC term evaluation                    ... done (   0.1 sec)
  promolecular density results
     # of electrons  =     39.993172454
     EX              =    -34.503636460
     EC              =     -1.322873909
     EX+EC           =    -35.826510369
Transforming the Hamiltonian                       ... done (   0.0 sec)
Diagonalizing the Hamiltonian                      ... done (   0.0 sec)
Back transforming the eigenvectors                 ... done (   0.0 sec)
Now organizing SCF variables                       ... done
                      ------------------
                      INITIAL GUESS DONE (   0.3 sec)
                      ------------------
--------------
SCF ITERATIONS
--------------
ITER       Energy         Delta-E        Max-DP      RMS-DP      [F,P]     Damp
               ***  Starting incremental Fock matrix formation  ***
  0   -283.6338857451   0.000000000000 0.12726279  0.00514803  0.2780374 0.7000
  1   -283.7532584442  -0.119372699032 0.06966614  0.00283548  0.1060250 0.7000
                               ***Turning on DIIS***
  2   -283.7833577166  -0.030099272402 0.04659015  0.00334255  0.0324389 0.0000
  3   -283.8514237976  -0.068066081008 0.04997612  0.00196623  0.0611047 0.0000
  4   -283.8593927124  -0.007968914822 0.01941517  0.00071677  0.0405499 0.0000
  5   -283.8618810036  -0.002488291213 0.00641629  0.00021287  0.0084157 0.0000
  6   -283.8620058732  -0.000124869634 0.00268713  0.00009673  0.0043375 0.0000
                      *** Initiating the SOSCF procedure ***
                           *** Shutting down DIIS ***
                      *** Re-Reading the Fockian *** 
                      *** Removing any level shift *** 
ITER      Energy       Delta-E        Grad      Rot      Max-DP    RMS-DP
  7   -283.86202810  -0.0000222290  0.000151  0.000151  0.000979  0.000047
               *** Restarting incremental Fock matrix formation ***
  8   -283.86202925  -0.0000011460  0.000210  0.000725  0.000929  0.000044
  9   -283.86202668   0.0000025688  0.000484  0.000515  0.000794  0.000030
 10   -283.86202990  -0.0000032166  0.000125  0.000480  0.000444  0.000018
 11   -283.86202916   0.0000007347  0.000360  0.000398  0.000395  0.000014
 12   -283.86203000  -0.0000008403  0.000029  0.000068  0.000190  0.000006
 13   -283.86202996   0.0000000399  0.000046  0.000043  0.000122  0.000004
                  ***Gradient check signals convergence***
              ***Rediagonalizing the Fockian in SOSCF/NRSCF***

               *****************************************************
               *                     SUCCESS                       *
               *           SCF CONVERGED AFTER  14 CYCLES          *
               *****************************************************

Setting up the final grid:

General Integration Accuracy     IntAcc      ...  4.670
Radial Grid Type                 RadialGrid  ... Gauss-Chebyshev
Angular Grid (max. acc.)         AngularGrid ... Lebedev-302
Angular grid pruning method      GridPruning ... 3 (G Style)
Weight generation scheme         WeightScheme... Becke
Basis function cutoff            BFCut       ...    1.0000e-11
Integration weight cutoff        WCut        ...    1.0000e-14
Grids for H and He will be reduced by one unit

# of grid points (after initial pruning)     ...  48030 (   0.0 sec)
# of grid points (after weights+screening)   ...  45314 (   0.1 sec)
nearest neighbour list constructed           ...    0.0 sec
Grid point re-assignment to atoms done       ...    0.0 sec
Grid point division into batches done        ...    0.1 sec
Reduced shell lists constructed in    0.4 sec

Total number of grid points                  ...    45314
Total number of batches                      ...      714
Average number of points per batch           ...       63
Average number of grid points per atom       ...     4531
Average number of shells per batch           ...    33.00 (73.34%)
Average number of basis functions per batch  ...    69.03 (72.66%)
Average number of large shells per batch     ...    26.75 (81.04%)
Average number of large basis fcns per batch ...    54.60 (79.09%)
Maximum spatial batch extension              ...  19.84, 23.58, 20.85 au
Average spatial batch extension              ...   2.72,  2.69,  2.76 au

Final grid set up in    0.4 sec
Final integration                            ... done (   0.4 sec)
Change in XC energy                          ...    -0.000704337
Integrated number of electrons               ...    39.999955384
Previous integrated no of electrons          ...    39.995779641

----------------
TOTAL SCF ENERGY
----------------

Total Energy       :         -283.86273436 Eh           -7724.29770 eV

Components:
Nuclear Repulsion  :          176.79072290 Eh            4810.72014 eV
Electronic Energy  :         -460.65345726 Eh          -12535.01784 eV
One Electron Energy:         -737.88430340 Eh          -20078.85268 eV
Two Electron Energy:          277.23084614 Eh            7543.83484 eV

Virial components:
Potential Energy   :         -565.29568491 Eh          -15382.47762 eV
Kinetic Energy     :          281.43295056 Eh            7658.17992 eV
Virial Ratio       :            2.00863362


DFT components:
N(Alpha)           :       19.999977692196 electrons
N(Beta)            :       19.999977692196 electrons
N(Total)           :       39.999955384392 electrons
E(X)               :      -35.077175264757 Eh       
E(C)               :       -1.345074798174 Eh       
E(XC)              :      -36.422250062931 Eh       

---------------
SCF CONVERGENCE
---------------

  Last Energy change         ...   -5.7554e-08  Tolerance :   1.0000e-08
  Last MAX-Density change    ...    1.0747e-05  Tolerance :   1.0000e-07
  Last RMS-Density change    ...    3.9985e-07  Tolerance :   5.0000e-09
  Last Orbital Gradient      ...    2.4770e-06  Tolerance :   1.0000e-05
  Last Orbital Rotation      ...    3.6718e-06  Tolerance :   1.0000e-05

             **** THE GBW FILE WAS UPDATED (4-tct_opt.gbw) ****
             **** DENSITY FILE WAS UPDATED (4-tct_opt.scfp.tmp) ****
             **** ENERGY FILE WAS UPDATED (4-tct_opt.en.tmp) ****
----------------
ORBITAL ENERGIES
----------------

  NO   OCC          E(Eh)            E(eV) 
   0   2.0000     -18.794854      -511.4340 
   1   2.0000     -18.739123      -509.9175 
   2   2.0000     -13.967638      -380.0787 
   3   2.0000     -10.012938      -272.4659 
   4   2.0000      -9.940610      -270.4977 
   5   2.0000      -0.968094       -26.3432 
   6   2.0000      -0.888664       -24.1818 
   7   2.0000      -0.806312       -21.9409 
   8   2.0000      -0.626263       -17.0415 
   9   2.0000      -0.542467       -14.7613 
  10   2.0000      -0.502827       -13.6826 
  11   2.0000      -0.425842       -11.5877 
  12   2.0000      -0.399616       -10.8741 
  13   2.0000      -0.390638       -10.6298 
  14   2.0000      -0.373154       -10.1540 
  15   2.0000      -0.332399        -9.0450 
  16   2.0000      -0.327736        -8.9181 
  17   2.0000      -0.262358        -7.1391 
  18   2.0000      -0.228306        -6.2125 
  19   2.0000      -0.173694        -4.7265 
  20   0.0000      -0.043673        -1.1884 
  21   0.0000       0.013812         0.3758 
  22   0.0000       0.048532         1.3206 
  23   0.0000       0.079220         2.1557 
  24   0.0000       0.087285         2.3752 
  25   0.0000       0.136351         3.7103 
  26   0.0000       0.146573         3.9884 
  27   0.0000       0.191765         5.2182 
  28   0.0000       0.248028         6.7492 
  29   0.0000       0.294415         8.0114 
  30   0.0000       0.361049         9.8246 
  31   0.0000       0.422043        11.4844 
  32   0.0000       0.441232        12.0065 
  33   0.0000       0.483323        13.1519 
  34   0.0000       0.512642        13.9497 
  35   0.0000       0.520746        14.1702 
  36   0.0000       0.556365        15.1395 
  37   0.0000       0.564391        15.3579 
  38   0.0000       0.599288        16.3074 
  39   0.0000       0.607489        16.5306 
  40   0.0000       0.623783        16.9740 
  41   0.0000       0.708723        19.2853 
  42   0.0000       0.750106        20.4114 
  43   0.0000       0.769928        20.9508 
  44   0.0000       0.799042        21.7430 
  45   0.0000       0.838974        22.8296 
  46   0.0000       0.874977        23.8093 
  47   0.0000       0.927992        25.2519 
  48   0.0000       0.929712        25.2987 
  49   0.0000       1.012680        27.5564 
  50   0.0000       1.067834        29.0572 
  51   0.0000       1.082438        29.4546 
  52   0.0000       1.162329        31.6286 
  53   0.0000       1.209023        32.8992 
  54   0.0000       1.305078        35.5130 
  55   0.0000       1.322672        35.9917 
  56   0.0000       1.344531        36.5865 
  57   0.0000       1.375391        37.4263 
  58   0.0000       1.479482        40.2587 
  59   0.0000       1.505347        40.9626 
  60   0.0000       1.525507        41.5112 
  61   0.0000       1.572468        42.7890 
  62   0.0000       1.616775        43.9947 
  63   0.0000       1.692902        46.0662 
  64   0.0000       1.725238        46.9461 
  65   0.0000       1.747878        47.5622 
  66   0.0000       1.748284        47.5732 
  67   0.0000       1.781620        48.4803 
  68   0.0000       1.862442        50.6796 
  69   0.0000       1.879360        51.1400 
  70   0.0000       1.962070        53.3906 
  71   0.0000       2.077008        56.5183 
  72   0.0000       2.137166        58.1552 
  73   0.0000       2.143582        58.3298 
  74   0.0000       2.205195        60.0064 
  75   0.0000       2.226062        60.5742 
  76   0.0000       2.296655        62.4952 
  77   0.0000       2.388161        64.9852 
  78   0.0000       2.549983        69.3886 
  79   0.0000       2.576334        70.1056 
  80   0.0000       2.595673        70.6319 
  81   0.0000       2.611706        71.0681 
  82   0.0000       2.713432        73.8362 
  83   0.0000       2.766636        75.2840 
  84   0.0000       2.769655        75.3661 
  85   0.0000       2.824008        76.8452 
  86   0.0000       2.900003        78.9131 
  87   0.0000       2.941981        80.0554 
  88   0.0000       3.028060        82.3977 
  89   0.0000       3.044238        82.8379 
  90   0.0000       3.109842        84.6231 
  91   0.0000       3.352977        91.2391 
  92   0.0000       3.465314        94.2960 
  93   0.0000       3.558933        96.8435 
  94   0.0000       3.659810        99.5885 

                    ********************************
                    * MULLIKEN POPULATION ANALYSIS *
                    ********************************

-----------------------
MULLIKEN ATOMIC CHARGES
-----------------------
   0 N :   -0.198406
   1 C :    0.029327
   2 H :    0.107153
   3 H :    0.107153
   4 C :    0.081744
   5 H :    0.064776
   6 H :    0.064776
   7 O :   -0.236893
   8 O :   -0.190791
   9 H :    0.171160
Sum of atomic charges:   -0.0000000

--------------------------------
MULLIKEN REDUCED ORBITAL CHARGES
--------------------------------
  0 N s       :     3.323124  s :     3.323124
      pz      :     0.953118  p :     3.861171
      px      :     1.359744
      py      :     1.548309
      dz2     :     0.004902  d :     0.014110
      dxz     :     0.003033
      dyz     :     0.000941
      dx2y2   :     0.002143
      dxy     :     0.003091
  1 C s       :     3.007960  s :     3.007960
      pz      :     1.063624  p :     2.914707
      px      :     0.972891
      py      :     0.878192
      dz2     :     0.007076  d :     0.048006
      dxz     :     0.008627
      dyz     :     0.004465
      dx2y2   :     0.015735
      dxy     :     0.012103
  2 H s       :     0.843031  s :     0.843031
      pz      :     0.021020  p :     0.049816
      px      :     0.013848
      py      :     0.014949
  3 H s       :     0.843031  s :     0.843031
      pz      :     0.021020  p :     0.049816
      px      :     0.013848
      py      :     0.014949
  4 C s       :     3.127750  s :     3.127750
      pz      :     0.851002  p :     2.682411
      px      :     0.817221
      py      :     1.014188
      dz2     :     0.006448  d :     0.108096
      dxz     :     0.016510
      dyz     :     0.012591
      dx2y2   :     0.044548
      dxy     :     0.027999
  5 H s       :     0.914130  s :     0.914130
      pz      :     0.010442  p :     0.021094
      px      :     0.006959
      py      :     0.003693
  6 H s       :     0.914130  s :     0.914130
      pz      :     0.010442  p :     0.021094
      px      :     0.006959
      py      :     0.003693
  7 O s       :     3.783273  s :     3.783273
      pz      :     1.381510  p :     4.438281
      px      :     1.600973
      py      :     1.455798
      dz2     :     0.001722  d :     0.015339
      dxz     :     0.001574
      dyz     :     0.003240
      dx2y2   :     0.003691
      dxy     :     0.005112
  8 O s       :     3.709005  s :     3.709005
      pz      :     1.763458  p :     4.470766
      px      :     1.351442
      py      :     1.355866
      dz2     :     0.001726  d :     0.011021
      dxz     :     0.001674
      dyz     :     0.000473
      dx2y2   :     0.005745
      dxy     :     0.001404
  9 H s       :     0.762227  s :     0.762227
      pz      :     0.017094  p :     0.066613
      px      :     0.014882
      py      :     0.034637


                     *******************************
                     * LOEWDIN POPULATION ANALYSIS *
                     *******************************

----------------------
LOEWDIN ATOMIC CHARGES
----------------------
   0 N :   -0.080698
   1 C :   -0.015217
   2 H :    0.052674
   3 H :    0.052674
   4 C :    0.078364
   5 H :    0.048581
   6 H :    0.048581
   7 O :   -0.197458
   8 O :   -0.067737
   9 H :    0.080237

-------------------------------
LOEWDIN REDUCED ORBITAL CHARGES
-------------------------------
  0 N s       :     3.022750  s :     3.022750
      pz      :     1.118197  p :     4.021287
      px      :     1.388098
      py      :     1.514993
      dz2     :     0.013995  d :     0.036661
      dxz     :     0.008911
      dyz     :     0.002232
      dx2y2   :     0.003791
      dxy     :     0.007732
  1 C s       :     2.851782  s :     2.851782
      pz      :     1.074366  p :     3.046028
      px      :     1.009106
      py      :     0.962557
      dz2     :     0.020184  d :     0.117407
      dxz     :     0.021093
      dyz     :     0.006498
      dx2y2   :     0.037976
      dxy     :     0.031656
  2 H s       :     0.805315  s :     0.805315
      pz      :     0.061641  p :     0.142011
      px      :     0.037452
      py      :     0.042918
  3 H s       :     0.805315  s :     0.805315
      pz      :     0.061641  p :     0.142011
      px      :     0.037452
      py      :     0.042918
  4 C s       :     2.915167  s :     2.915167
      pz      :     0.825740  p :     2.771142
      px      :     0.893946
      py      :     1.051457
      dz2     :     0.015208  d :     0.235326
      dxz     :     0.030531
      dyz     :     0.022335
      dx2y2   :     0.102336
      dxy     :     0.064916
  5 H s       :     0.887613  s :     0.887613
      pz      :     0.031452  p :     0.063807
      px      :     0.021766
      py      :     0.010588
  6 H s       :     0.887613  s :     0.887613
      pz      :     0.031452  p :     0.063807
      px      :     0.021766
      py      :     0.010588
  7 O s       :     3.589514  s :     3.589514
      pz      :     1.383278  p :     4.580832
      px      :     1.653094
      py      :     1.544461
      dz2     :     0.003901  d :     0.027112
      dxz     :     0.001989
      dyz     :     0.004013
      dx2y2   :     0.006281
      dxy     :     0.010928
  8 O s       :     3.460677  s :     3.460677
      pz      :     1.726838  p :     4.584459
      px      :     1.400114
      py      :     1.457506
      dz2     :     0.004001  d :     0.022601
      dxz     :     0.002424
      dyz     :     0.000119
      dx2y2   :     0.013226
      dxy     :     0.002830
  9 H s       :     0.739704  s :     0.739704
      pz      :     0.046558  p :     0.180060
      px      :     0.037508
      py      :     0.095994


                      *****************************
                      * MAYER POPULATION ANALYSIS *
                      *****************************

  NA   - Mulliken gross atomic population
  ZA   - Total nuclear charge
  QA   - Mulliken gross atomic charge
  VA   - Mayer's total valence
  BVA  - Mayer's bonded valence
  FA   - Mayer's free valence

  ATOM       NA         ZA         QA         VA         BVA        FA
  0 N      7.1984     7.0000    -0.1984     3.1252     3.1252    -0.0000
  1 C      5.9707     6.0000     0.0293     3.9481     3.9481    -0.0000
  2 H      0.8928     1.0000     0.1072     1.0141     1.0141    -0.0000
  3 H      0.8928     1.0000     0.1072     1.0141     1.0141    -0.0000
  4 C      5.9183     6.0000     0.0817     4.2508     4.2508     0.0000
  5 H      0.9352     1.0000     0.0648     0.9895     0.9895    -0.0000
  6 H      0.9352     1.0000     0.0648     0.9895     0.9895    -0.0000
  7 O      8.2369     8.0000    -0.2369     2.2310     2.2310     0.0000
  8 O      8.1908     8.0000    -0.1908     2.2518     2.2518     0.0000
  9 H      0.8288     1.0000     0.1712     1.0396     1.0396     0.0000

  Mayer bond orders larger than 0.1
B(  0-N ,  1-C ) :   1.1126 B(  0-N ,  2-H ) :   0.9796 B(  0-N ,  3-H ) :   0.9796 
B(  1-C ,  4-C ) :   0.9460 B(  1-C ,  5-H ) :   0.9373 B(  1-C ,  6-H ) :   0.9373 
B(  4-C ,  7-O ) :   2.0228 B(  4-C ,  8-O ) :   1.1864 B(  7-O ,  8-O ) :   0.1117 
B(  8-O ,  9-H ) :   0.9477 

-------
TIMINGS
-------

Total SCF time: 0 days 0 hours 0 min 5 sec 

Total time                  ....       5.305 sec
Sum of individual times     ....       5.289 sec  ( 99.7%)

Fock matrix formation       ....       4.481 sec  ( 84.5%)
  Split-RI-J                ....       2.464 sec  ( 55.0% of F)
  XC integration            ....       2.006 sec  ( 44.8% of F)
    Basis function eval.    ....       0.851 sec  ( 42.4% of XC)
    Density eval.           ....       0.323 sec  ( 16.1% of XC)
    XC-Functional eval.     ....       0.235 sec  ( 11.7% of XC)
    XC-Potential eval.      ....       0.544 sec  ( 27.1% of XC)
Diagonalization             ....       0.014 sec  (  0.3%)
Density matrix formation    ....       0.001 sec  (  0.0%)
Population analysis         ....       0.002 sec  (  0.0%)
Initial guess               ....       0.233 sec  (  4.4%)
Orbital Transformation      ....       0.000 sec  (  0.0%)
Orbital Orthonormalization  ....       0.000 sec  (  0.0%)
DIIS solution               ....       0.003 sec  (  0.1%)
SOSCF solution              ....       0.007 sec  (  0.1%)
Grid generation             ....       0.548 sec  ( 10.3%)

-------------------------   --------------------
FINAL SINGLE POINT ENERGY      -283.862734355993
-------------------------   --------------------

------------------------------------------------------------------------------
                         ORCA SCF GRADIENT CALCULATION
------------------------------------------------------------------------------

Gradient of the Kohn-Sham DFT energy:
Kohn-Sham wavefunction type      ... RKS
Hartree-Fock exchange scaling    ...    0.000
Number of operators              ...    1
Number of atoms                  ...   10
Basis set dimensions             ...   95
Integral neglect threshold       ... 2.5e-11
Integral primitive cutoff        ... 2.5e-12

Nuclear repulsion gradient       ... done
One Electron Gradient            
  ECP gradient                   ... done
Pre-screening matrix             ... done
RI-J gradient                    ... done
Exchange-correlation gradient    ... done

------------------
CARTESIAN GRADIENT
------------------

   1   N   :    0.076153539   -0.013995544    0.000000000
   2   C   :   -0.037280315    0.008628720    0.000000000
   3   H   :   -0.039779283    0.017170657   -0.016441809
   4   H   :   -0.039779282    0.017170657    0.016441808
   5   C   :    0.013562029   -0.086541831   -0.000000000
   6   H   :    0.006010910   -0.005138503   -0.004009357
   7   H   :    0.006010909   -0.005138502    0.004009357
   8   O   :   -0.035254828    0.043875260    0.000000000
   9   O   :    0.044174501    0.044489205   -0.000000000
  10   H   :    0.006181820   -0.020520119   -0.000000000

Difference to translation invariance:
           :   -0.0000000000   -0.0000000000    0.0000000000

Norm of the cartesian gradient     ...    0.1647518440
RMS gradient                       ...    0.0300794338
MAX gradient                       ...    0.0865418311

-------
TIMINGS
-------

Total SCF gradient time            ...        2.258 sec

One electron gradient       ....       0.030 sec  (  1.3%)
Prescreening matrices       ....       0.038 sec  (  1.7%)
RI-J Coulomb gradient       ....       0.369 sec  ( 16.3%)
XC gradient                 ....       1.702 sec  ( 75.4%)
------------------------------------------------------------------------------
                         ORCA GEOMETRY RELAXATION STEP
------------------------------------------------------------------------------

Reading the OPT-File                    .... done
Getting information on internals        .... done
Copying old internal coords+grads       .... done
Making the new internal coordinates     .... (new redundants).... done
Validating the new internal coordinates .... (new redundants).... done
Calculating the B-matrix                .... done
Calculating the G,G- and P matrices     .... done
Transforming gradient to internals      .... done
Projecting the internal gradient        .... done
Number of atoms                         ....  10
Number of internal coordinates          ....  36
Current Energy                          ....  -283.862734356 Eh
Current gradient norm                   ....     0.164751844 Eh/bohr
Maximum allowed component of the step   ....  0.300
Current trust radius                    ....  0.300
Evaluating the initial hessian          ....  (Almloef) done
Projecting the Hessian                  .... done
Forming the augmented Hessian           .... done
Diagonalizing the augmented Hessian     .... done
Last element of RFO vector              ....  0.962054112
Lowest eigenvalues of augmented Hessian:
 -0.031062177  0.011038153  0.012467126  0.016753526  0.017319934
Length of the computed step             ....  0.283620978
The final length of the internal step   ....  0.283620978
Converting the step to cartesian space:
 Initial RMS(Int)=    0.0472701630
Transforming coordinates:
 Iter   0:  RMS(Cart)=    0.0778437670 RMS(Int)=    0.0477445268
 Iter   1:  RMS(Cart)=    0.0025808547 RMS(Int)=    0.0023422512
 Iter   2:  RMS(Cart)=    0.0002354544 RMS(Int)=    0.0002678847
 Iter   3:  RMS(Cart)=    0.0000305438 RMS(Int)=    0.0000264121
 Iter   4:  RMS(Cart)=    0.0000027255 RMS(Int)=    0.0000034212
 Iter   5:  RMS(Cart)=    0.0000003864 RMS(Int)=    0.0000003193
 Iter   6:  RMS(Cart)=    0.0000000348 RMS(Int)=    0.0000000417
done
Storing new coordinates                 .... done

                                .--------------------.
          ----------------------|Geometry convergence|-------------------------
          Item                value                   Tolerance       Converged
          ---------------------------------------------------------------------
          RMS gradient        0.0200035249            0.0001000000      NO
          MAX gradient        0.0560835460            0.0003000000      NO
          RMS step            0.0472701630            0.0020000000      NO
          MAX step            0.1273454117            0.0040000000      NO
          ........................................................
          Max(Bonds)      0.0534      Max(Angles)    7.30
          Max(Dihed)        2.45      Max(Improp)    0.00
          ---------------------------------------------------------------------

The optimization has not yet converged - more geometry cycles are needed


    ---------------------------------------------------------------------------
                         Redundant Internal Coordinates
                            (Angstroem and degrees)

        Definition                    Value    dE/dq     Step     New-Value
    ----------------------------------------------------------------------------
     1. B(C   1,N   0)                1.4490 -0.017094  0.0188    1.4678   
     2. B(H   2,N   0)                0.9806 -0.029245  0.0302    1.0108   
     3. B(H   3,N   0)                0.9806 -0.029245  0.0302    1.0108   
     4. B(C   4,C   1)                1.5219 -0.004201  0.0053    1.5272   
     5. B(H   5,C   1)                1.1105  0.000312 -0.0005    1.1100   
     6. B(H   6,C   1)                1.1105  0.000312 -0.0005    1.1100   
     7. B(O   7,C   4)                1.2584  0.056084 -0.0316    1.2267   
     8. B(O   8,C   4)                1.4300  0.051880 -0.0534    1.3766   
     9. B(H   9,O   8)                0.9599 -0.018108  0.0174    0.9773   
    10. A(C   1,N   0,H   3)          105.91 -0.024698    3.64    109.55   
    11. A(H   2,N   0,H   3)          142.95  0.043085   -7.30    135.65   
    12. A(C   1,N   0,H   2)          105.91 -0.024698    3.64    109.55   
    13. A(C   4,C   1,H   5)          107.87  0.011786   -1.83    106.04   
    14. A(N   0,C   1,H   5)          109.56  0.002934    0.32    109.88   
    15. A(N   0,C   1,H   6)          109.56  0.002934    0.32    109.88   
    16. A(H   5,C   1,H   6)          111.56  0.001650   -2.37    109.19   
    17. A(C   4,C   1,H   6)          107.87  0.011786   -1.83    106.04   
    18. A(N   0,C   1,C   4)          110.40 -0.031609    5.46    115.86   
    19. A(O   7,C   4,O   8)          120.00 -0.007731    1.07    121.07   
    20. A(C   1,C   4,O   8)          120.00  0.026772   -3.59    116.40   
    21. A(C   1,C   4,O   7)          120.00 -0.019041    2.53    122.52   
    22. A(C   4,O   8,H   9)          109.50  0.020788   -3.09    106.41   
    23. D(H   6,C   1,N   0,H   2)    -38.28  0.003999   -2.36    -40.63   
    24. D(H   5,C   1,N   0,H   3)     38.28 -0.003999    2.36     40.63   
    25. D(H   6,C   1,N   0,H   3)    160.97  0.001871   -0.18    160.79   
    26. D(H   5,C   1,N   0,H   2)   -160.97 -0.001871    0.18   -160.79   
    27. D(C   4,C   1,N   0,H   2)     80.38  0.001064   -1.09     79.29   
    28. D(C   4,C   1,N   0,H   3)    -80.38 -0.001064    1.09    -79.29   
    29. D(O   7,C   4,C   1,N   0)    180.00  0.000000   -0.00    180.00   
    30. D(O   8,C   4,C   1,H   6)    119.68 -0.007650    2.45    122.13   
    31. D(O   8,C   4,C   1,H   5)   -119.68  0.007650   -2.45   -122.13   
    32. D(O   8,C   4,C   1,N   0)      0.00  0.000000   -0.00     -0.00   
    33. D(O   7,C   4,C   1,H   6)    -60.32 -0.007650    2.45    -57.87   
    34. D(O   7,C   4,C   1,H   5)     60.32  0.007650   -2.45     57.87   
    35. D(H   9,O   8,C   4,O   7)      0.00 -0.000000    0.00      0.00   
    36. D(H   9,O   8,C   4,C   1)    180.00  0.000000   -0.00    180.00   
    ----------------------------------------------------------------------------

         *************************************************************
         *                GEOMETRY OPTIMIZATION CYCLE   2            *
         *************************************************************
---------------------------------
CARTESIAN COORDINATES (ANGSTROEM)
---------------------------------
  N      0.199443   -1.894037   -0.000000
  C     -0.743654   -0.769362    0.000000
  H      0.552283   -2.039315    0.936004
  H      0.552283   -2.039315   -0.936004
  C     -0.117575    0.623621    0.000000
  H     -1.385677   -0.814979   -0.904341
  H     -1.385677   -0.814979    0.904341
  O     -0.790614    1.649254   -0.000000
  O      1.257981    0.676514    0.000000
  H      1.497848    1.623928    0.000000

----------------------------
CARTESIAN COORDINATES (A.U.)
----------------------------
  NO LB      ZA    FRAG     MASS         X           Y           Z
   0 N     7.0000    0    14.007    0.376892   -3.579212   -0.000000
   1 C     6.0000    0    12.011   -1.405303   -1.453883    0.000000
   2 H     1.0000    0     1.008    1.043663   -3.853747    1.768792
   3 H     1.0000    0     1.008    1.043663   -3.853747   -1.768792
   4 C     6.0000    0    12.011   -0.222184    1.178474    0.000000
   5 H     1.0000    0     1.008   -2.618549   -1.540088   -1.708957
   6 H     1.0000    0     1.008   -2.618549   -1.540088    1.708957
   7 O     8.0000    0    15.999   -1.494045    3.116638   -0.000000
   8 O     8.0000    0    15.999    2.377240    1.278427    0.000000
   9 H     1.0000    0     1.008    2.830522    3.068780    0.000000

--------------------------------
INTERNAL COORDINATES (ANGSTROEM)
--------------------------------
 N      0   0   0     0.000000000000     0.00000000     0.00000000
 C      1   0   0     1.467762346155     0.00000000     0.00000000
 H      1   2   0     1.010794690025   109.53749099     0.00000000
 H      1   2   3     1.010794689308   109.53749094   201.41862395
 C      2   1   3     1.527212490188   115.81682578    79.29068783
 H      2   1   3     1.110002938010   109.88619506   199.24980007
 H      2   1   3     1.110002937596   109.88619499   319.33157561
 O      5   2   1     1.226745385163   122.52470744   179.99999915
 O      5   2   1     1.376572395792   116.40370612     0.00000000
 H      9   5   2     0.977307294704   106.40969829   180.00000000

---------------------------
INTERNAL COORDINATES (A.U.)
---------------------------
 N      0   0   0     0.000000000000     0.00000000     0.00000000
 C      1   0   0     2.773668863915     0.00000000     0.00000000
 H      1   2   0     1.910125141768   109.53749099     0.00000000
 H      1   2   3     1.910125140413   109.53749094   201.41862395
 C      2   1   3     2.886013354760   115.81682578    79.29068783
 H      2   1   3     2.097601560687   109.88619506   199.24980007
 H      2   1   3     2.097601559904   109.88619499   319.33157561
 O      5   2   1     2.318212814010   122.52470744   179.99999915
 O      5   2   1     2.601344831562   116.40370612     0.00000000
 H      9   5   2     1.846843135675   106.40969829   180.00000000

 One Electron integrals                  ... done
 Pre-screening matrix                    ... done

Diagonalization of the overlap matrix:
Smallest eigenvalue                        ... 2.575e-03
Time for diagonalization                   ...    0.004 sec
Threshold for overlap eigenvalues          ... 1.000e-08
Number of eigenvalues below threshold      ... 0
Time for construction of square roots      ...    0.001 sec
Total time needed                          ...    0.006 sec

-------------------
DFT GRID GENERATION
-------------------

General Integration Accuracy     IntAcc      ...  4.340
Radial Grid Type                 RadialGrid  ... Gauss-Chebyshev
Angular Grid (max. acc.)         AngularGrid ... Lebedev-110
Angular grid pruning method      GridPruning ... 3 (G Style)
Weight generation scheme         WeightScheme... Becke
Basis function cutoff            BFCut       ...    1.0000e-11
Integration weight cutoff        WCut        ...    1.0000e-14
Grids for H and He will be reduced by one unit

# of grid points (after initial pruning)     ...  12416 (   0.0 sec)
# of grid points (after weights+screening)   ...  11852 (   0.0 sec)
nearest neighbour list constructed           ...    0.0 sec
Grid point re-assignment to atoms done       ...    0.0 sec
Grid point division into batches done        ...    0.0 sec
Reduced shell lists constructed in    0.1 sec

Total number of grid points                  ...    11852
Total number of batches                      ...      189
Average number of points per batch           ...       62
Average number of grid points per atom       ...     1185
Average number of shells per batch           ...    35.84 (79.64%)
Average number of basis functions per batch  ...    75.30 (79.26%)
Average number of large shells per batch     ...    29.73 (82.96%)
Average number of large basis fcns per batch ...    61.48 (81.65%)
Maximum spatial batch extension              ...  19.93, 18.53, 21.15 au
Average spatial batch extension              ...   4.12,  4.07,  4.07 au

Time for grid setup =    0.162 sec

--------------
SCF ITERATIONS
--------------
ITER       Energy         Delta-E        Max-DP      RMS-DP      [F,P]     Damp
               ***  Starting incremental Fock matrix formation  ***
  0   -283.8789188298   0.000000000000 0.00728457  0.00049011  0.0211012 0.7000
                      *** Initiating the SOSCF procedure ***
                      *** Re-Reading the Fockian *** 
                      *** Removing any level shift *** 
ITER      Energy       Delta-E        Grad      Rot      Max-DP    RMS-DP
  1   -283.88048352  -0.0015646865  0.002347  0.002347  0.023422  0.001456
               *** Restarting incremental Fock matrix formation ***
  2   -283.88393920  -0.0034556870  0.003230  0.012821  0.014755  0.000708
  3   -283.88344770   0.0004915040  0.010260  0.012653  0.013065  0.000433
  4   -283.88405983  -0.0006121346  0.002123  0.004176  0.011850  0.000344
  5   -283.88394918   0.0001106493  0.003163  0.002990  0.007701  0.000226
  6   -283.88411135  -0.0001621674  0.000447  0.000574  0.001630  0.000069
  7   -283.88410736   0.0000039918  0.000797  0.000490  0.001049  0.000045
  8   -283.88411378  -0.0000064235  0.000078  0.000154  0.000275  0.000013
  9   -283.88411365   0.0000001386  0.000124  0.000093  0.000184  0.000008
 10   -283.88411388  -0.0000002349  0.000009  0.000016  0.000045  0.000002
 11   -283.88411388   0.0000000002  0.000010  0.000008  0.000026  0.000001
                  ***Gradient check signals convergence***
              ***Rediagonalizing the Fockian in SOSCF/NRSCF***

               *****************************************************
               *                     SUCCESS                       *
               *           SCF CONVERGED AFTER  12 CYCLES          *
               *****************************************************

Setting up the final grid:

General Integration Accuracy     IntAcc      ...  4.670
Radial Grid Type                 RadialGrid  ... Gauss-Chebyshev
Angular Grid (max. acc.)         AngularGrid ... Lebedev-302
Angular grid pruning method      GridPruning ... 3 (G Style)
Weight generation scheme         WeightScheme... Becke
Basis function cutoff            BFCut       ...    1.0000e-11
Integration weight cutoff        WCut        ...    1.0000e-14
Grids for H and He will be reduced by one unit

# of grid points (after initial pruning)     ...  48030 (   0.0 sec)
# of grid points (after weights+screening)   ...  45369 (   0.1 sec)
nearest neighbour list constructed           ...    0.0 sec
Grid point re-assignment to atoms done       ...    0.0 sec
Grid point division into batches done        ...    0.1 sec
Reduced shell lists constructed in    0.4 sec

Total number of grid points                  ...    45369
Total number of batches                      ...      715
Average number of points per batch           ...       63
Average number of grid points per atom       ...     4537
Average number of shells per batch           ...    32.85 (73.00%)
Average number of basis functions per batch  ...    68.61 (72.22%)
Average number of large shells per batch     ...    26.60 (80.98%)
Average number of large basis fcns per batch ...    54.32 (79.17%)
Maximum spatial batch extension              ...  19.77, 20.84, 32.81 au
Average spatial batch extension              ...   2.73,  2.74,  2.85 au

Final grid set up in    0.5 sec
Final integration                            ... done (   0.4 sec)
Change in XC energy                          ...    -0.000317275
Integrated number of electrons               ...    39.999986019
Previous integrated no of electrons          ...    39.996638812
Total Energy       :         -283.88443116 Eh           -7724.88810 eV
  Last Energy change         ...   -1.6313e-09  Tolerance :   1.0000e-08
  Last MAX-Density change    ...    7.7743e-06  Tolerance :   1.0000e-07
             **** THE GBW FILE WAS UPDATED (4-tct_opt.gbw) ****
             **** DENSITY FILE WAS UPDATED (4-tct_opt.scfp.tmp) ****
             **** ENERGY FILE WAS UPDATED (4-tct_opt.en.tmp) ****
Total SCF time: 0 days 0 hours 0 min 4 sec 

-------------------------   --------------------
FINAL SINGLE POINT ENERGY      -283.884431156642
-------------------------   --------------------

------------------------------------------------------------------------------
                         ORCA SCF GRADIENT CALCULATION
------------------------------------------------------------------------------

Gradient of the Kohn-Sham DFT energy:
Kohn-Sham wavefunction type      ... RKS
Hartree-Fock exchange scaling    ...    0.000
Number of operators              ...    1
Number of atoms                  ...   10
Basis set dimensions             ...   95
Integral neglect threshold       ... 2.5e-11
Integral primitive cutoff        ... 2.5e-12

Nuclear repulsion gradient       ... done
One Electron Gradient            
  ECP gradient                   ... done
Pre-screening matrix             ... done
RI-J gradient                    ... done
Exchange-correlation gradient    ... done

------------------
CARTESIAN GRADIENT
------------------

   1   N   :    0.054069444   -0.024830186   -0.000000000
   2   C   :   -0.028336413    0.015682897    0.000000000
   3   H   :   -0.022383640    0.009733936    0.009093305
   4   H   :   -0.022383641    0.009733936   -0.009093304
   5   C   :    0.000352259   -0.029985246    0.000000000
   6   H   :    0.004444969   -0.001662683   -0.002326663
   7   H   :    0.004444970   -0.001662683    0.002326662
   8   O   :   -0.006211516    0.011007075   -0.000000001
   9   O   :    0.012454007    0.015972118    0.000000000
  10   H   :    0.003549560   -0.003989164    0.000000000

Difference to translation invariance:
           :   -0.0000000000   -0.0000000000    0.0000000000

Norm of the cartesian gradient     ...    0.0865993718
RMS gradient                       ...    0.0158108098
MAX gradient                       ...    0.0540694444

-------
TIMINGS
-------

Total SCF gradient time            ...        2.257 sec

One electron gradient       ....       0.029 sec  (  1.3%)
Prescreening matrices       ....       0.037 sec  (  1.7%)
RI-J Coulomb gradient       ....       0.370 sec  ( 16.4%)
XC gradient                 ....       1.705 sec  ( 75.6%)
------------------------------------------------------------------------------
                         ORCA GEOMETRY RELAXATION STEP
------------------------------------------------------------------------------

Reading the OPT-File                    .... done
Getting information on internals        .... done
Copying old internal coords+grads       .... done
Making the new internal coordinates     .... (new redundants).... done
Validating the new internal coordinates .... (new redundants).... done
Calculating the B-matrix                .... done
Calculating the G,G- and P matrices     .... done
Transforming gradient to internals      .... done
Projecting the internal gradient        .... done
Number of atoms                         ....  10
Number of internal coordinates          ....  36
Current Energy                          ....  -283.884431157 Eh
Current gradient norm                   ....     0.086599372 Eh/bohr
Maximum allowed component of the step   ....  0.300
Current trust radius                    ....  0.300
Updating the Hessian (BFGS)             .... done
Forming the augmented Hessian           .... done
Diagonalizing the augmented Hessian     .... done
Last element of RFO vector              ....  0.946527462
Lowest eigenvalues of augmented Hessian:
 -0.014556913  0.011038153  0.012467126  0.016753526  0.017319934
Length of the computed step             ....  0.340849334
Warning: the length of the step is outside the trust region - taking restricted step instead
The input lambda is                     ....    -0.014557
   iter:   1  x=   -0.023696  g=    2.864408 f(x)=     0.026178
   iter:   2  x=   -0.026216  g=    1.909112 f(x)=     0.004811
   iter:   3  x=   -0.026349  g=    1.730473 f(x)=     0.000231
   iter:   4  x=   -0.026350  g=    1.721744 f(x)=     0.000001
   iter:   5  x=   -0.026350  g=    1.721722 f(x)=     0.000000
   iter:   6  x=   -0.026350  g=    1.721722 f(x)=     0.000000
The output lambda is                    ....    -0.026350 (6 iterations)
The final length of the internal step   ....  0.300000000
Converting the step to cartesian space:
 Initial RMS(Int)=    0.0500000000
Transforming coordinates:
 Iter   0:  RMS(Cart)=    0.0472343558 RMS(Int)=    1.0484183913
 Iter   1:  RMS(Cart)=    0.0025365631 RMS(Int)=    0.0025019197
 Iter   2:  RMS(Cart)=    0.0001512573 RMS(Int)=    0.0001899618
 Iter   3:  RMS(Cart)=    0.0000212841 RMS(Int)=    0.0000189350
 Iter   4:  RMS(Cart)=    0.0000013435 RMS(Int)=    0.0000016942
 Iter   5:  RMS(Cart)=    0.0000001881 RMS(Int)=    0.0000001611
 Iter   6:  RMS(Cart)=    0.0000000119 RMS(Int)=    0.0000000153
done
Storing new coordinates                 .... done

                                .--------------------.
          ----------------------|Geometry convergence|-------------------------
          Item                value                   Tolerance       Converged
          ---------------------------------------------------------------------
          Energy change      -0.0216968006            0.0000050000      NO
          RMS gradient        0.0085265119            0.0001000000      NO
          MAX gradient        0.0312317690            0.0003000000      NO
          RMS step            0.0500000000            0.0020000000      NO
          MAX step            0.1764048362            0.0040000000      NO
          ........................................................
          Max(Bonds)      0.0350      Max(Angles)   10.11
          Max(Dihed)        4.83      Max(Improp)    0.00
          ---------------------------------------------------------------------

The optimization has not yet converged - more geometry cycles are needed


    ---------------------------------------------------------------------------
                         Redundant Internal Coordinates
                            (Angstroem and degrees)

        Definition                    Value    dE/dq     Step     New-Value
    ----------------------------------------------------------------------------
     1. B(C   1,N   0)                1.4678  0.010080 -0.0144    1.4534   
     2. B(H   2,N   0)                1.0108 -0.000793  0.0061    1.0169   
     3. B(H   3,N   0)                1.0108 -0.000793  0.0061    1.0169   
     4. B(C   4,C   1)                1.5272 -0.002220  0.0052    1.5324   
     5. B(H   5,C   1)                1.1100 -0.000606  0.0013    1.1113   
     6. B(H   6,C   1)                1.1100 -0.000606  0.0013    1.1113   
     7. B(O   7,C   4)                1.2267  0.012609 -0.0168    1.2100   
     8. B(O   8,C   4)                1.3766  0.016461 -0.0350    1.3416   
     9. B(H   9,O   8)                0.9773 -0.002999  0.0073    0.9846   
    10. A(C   1,N   0,H   3)          109.54 -0.016548    3.72    113.26   
    11. A(H   2,N   0,H   3)          135.64  0.031232  -10.11    125.53   
    12. A(C   1,N   0,H   2)          109.54 -0.016548    3.72    113.26   
    13. A(C   4,C   1,H   5)          105.94  0.003521   -1.09    104.85   
    14. A(N   0,C   1,H   5)          109.89 -0.000056    0.47    110.36   
    15. A(N   0,C   1,H   6)          109.89 -0.000056    0.47    110.36   
    16. A(H   5,C   1,H   6)          109.12  0.002676   -2.28    106.83   
    17. A(C   4,C   1,H   6)          105.94  0.003521   -1.09    104.85   
    18. A(N   0,C   1,C   4)          115.82 -0.008891    3.34    119.15   
    19. A(O   7,C   4,O   8)          121.07 -0.007776    1.75    122.82   
    20. A(C   1,C   4,O   8)          116.40  0.013577   -3.39    113.02   
    21. A(C   1,C   4,O   7)          122.52 -0.005801    1.64    124.16   
    22. A(C   4,O   8,H   9)          106.41  0.008175   -2.35    104.06   
    23. D(H   6,C   1,N   0,H   2)    -40.67  0.004229   -4.83    -45.50   
    24. D(H   5,C   1,N   0,H   3)     40.67 -0.004229    4.83     45.50   
    25. D(H   6,C   1,N   0,H   3)    160.75 -0.000995    2.60    163.35   
    26. D(H   5,C   1,N   0,H   2)   -160.75  0.000995   -2.60   -163.35   
    27. D(C   4,C   1,N   0,H   2)     79.29  0.002612   -3.72     75.57   
    28. D(C   4,C   1,N   0,H   3)    -79.29 -0.002612    3.72    -75.57   
    29. D(O   7,C   4,C   1,N   0)    180.00 -0.000000    0.00    180.00   
    30. D(O   8,C   4,C   1,H   6)    122.08 -0.003123    1.87    123.95   
    31. D(O   8,C   4,C   1,H   5)   -122.08  0.003123   -1.87   -123.95   
    32. D(O   8,C   4,C   1,N   0)     -0.00 -0.000000    0.00      0.00   
    33. D(O   7,C   4,C   1,H   6)    -57.92 -0.003123    1.87    -56.05   
    34. D(O   7,C   4,C   1,H   5)     57.92  0.003123   -1.87     56.05   
    35. D(H   9,O   8,C   4,O   7)      0.00  0.000000   -0.00      0.00   
    36. D(H   9,O   8,C   4,C   1)    180.00  0.000000   -0.00    180.00   
    ----------------------------------------------------------------------------

         *************************************************************
         *                GEOMETRY OPTIMIZATION CYCLE   3            *
         *************************************************************
---------------------------------
CARTESIAN COORDINATES (ANGSTROEM)
---------------------------------
  N      0.167643   -1.904118    0.000000
  C     -0.724423   -0.756678    0.000000
  H      0.598400   -2.078894    0.904434
  H      0.598400   -2.078894   -0.904434
  C     -0.124393    0.653399    0.000000
  H     -1.386725   -0.782140   -0.892038
  H     -1.386725   -0.782140    0.892038
  O     -0.779620    1.670625    0.000000
  O      1.217164    0.652583   -0.000000
  H      1.456920    1.607588   -0.000000

----------------------------
CARTESIAN COORDINATES (A.U.)
----------------------------
  NO LB      ZA    FRAG     MASS         X           Y           Z
   0 N     7.0000    0    14.007    0.316799   -3.598262    0.000000
   1 C     6.0000    0    12.011   -1.368961   -1.429914    0.000000
   2 H     1.0000    0     1.008    1.130812   -3.928541    1.709133
   3 H     1.0000    0     1.008    1.130813   -3.928541   -1.709133
   4 C     6.0000    0    12.011   -0.235069    1.234746    0.000000
   5 H     1.0000    0     1.008   -2.620531   -1.478030   -1.685708
   6 H     1.0000    0     1.008   -2.620531   -1.478030    1.685708
   7 O     8.0000    0    15.999   -1.473268    3.157023    0.000000
   8 O     8.0000    0    15.999    2.300106    1.233202   -0.000000
   9 H     1.0000    0     1.008    2.753179    3.037901   -0.000000

--------------------------------
INTERNAL COORDINATES (ANGSTROEM)
--------------------------------
 N      0   0   0     0.000000000000     0.00000000     0.00000000
 C      1   0   0     1.453409977660     0.00000000     0.00000000
 H      1   2   0     1.016907032387   113.30843473     0.00000000
 H      1   2   3     1.016907032426   113.30843484   208.86926394
 C      2   1   3     1.532433700820   119.08588946    75.56536835
 H      2   1   3     1.111316799238   110.34655359   196.68382345
 H      2   1   3     1.111316801593   110.34655342   314.44691283
 O      5   2   1     1.209987656077   124.16193290   180.00000000
 O      5   2   1     1.341557133342   113.01632456     0.00000000
 H      9   5   2     0.984640953372   104.05806845   180.00000000

---------------------------
INTERNAL COORDINATES (A.U.)
---------------------------
 N      0   0   0     0.000000000000     0.00000000     0.00000000
 C      1   0   0     2.746546818087     0.00000000     0.00000000
 H      1   2   0     1.921675794870   113.30843473     0.00000000
 H      1   2   3     1.921675794943   113.30843484   208.86926394
 C      2   1   3     2.895880012942   119.08588946    75.56536835
 H      2   1   3     2.100084398586   110.34655359   196.68382345
 H      2   1   3     2.100084403036   110.34655342   314.44691283
 O      5   2   1     2.286545295411   124.16193290   180.00000000
 O      5   2   1     2.535175575024   113.01632456     0.00000000
 H      9   5   2     1.860701742117   104.05806845   180.00000000

 One Electron integrals                  ... done
 Pre-screening matrix                    ... done

Diagonalization of the overlap matrix:
Smallest eigenvalue                        ... 2.586e-03
Time for diagonalization                   ...    0.004 sec
Threshold for overlap eigenvalues          ... 1.000e-08
Number of eigenvalues below threshold      ... 0
Time for construction of square roots      ...    0.001 sec
Total time needed                          ...    0.005 sec

-------------------
DFT GRID GENERATION
-------------------

General Integration Accuracy     IntAcc      ...  4.340
Radial Grid Type                 RadialGrid  ... Gauss-Chebyshev
Angular Grid (max. acc.)         AngularGrid ... Lebedev-110
Angular grid pruning method      GridPruning ... 3 (G Style)
Weight generation scheme         WeightScheme... Becke
Basis function cutoff            BFCut       ...    1.0000e-11
Integration weight cutoff        WCut        ...    1.0000e-14
Grids for H and He will be reduced by one unit

# of grid points (after initial pruning)     ...  12416 (   0.0 sec)
# of grid points (after weights+screening)   ...  11848 (   0.0 sec)
nearest neighbour list constructed           ...    0.0 sec
Grid point re-assignment to atoms done       ...    0.0 sec
Grid point division into batches done        ...    0.0 sec
Reduced shell lists constructed in    0.1 sec

Total number of grid points                  ...    11848
Total number of batches                      ...      189
Average number of points per batch           ...       62
Average number of grid points per atom       ...     1185
Average number of shells per batch           ...    35.97 (79.94%)
Average number of basis functions per batch  ...    75.55 (79.53%)
Average number of large shells per batch     ...    29.75 (82.69%)
Average number of large basis fcns per batch ...    61.56 (81.48%)
Maximum spatial batch extension              ...  19.98, 18.53, 21.15 au
Average spatial batch extension              ...   4.12,  4.09,  4.12 au

Time for grid setup =    0.155 sec

--------------
SCF ITERATIONS
--------------
ITER       Energy         Delta-E        Max-DP      RMS-DP      [F,P]     Damp
               ***  Starting incremental Fock matrix formation  ***
  0   -283.8905966430   0.000000000000 0.00581100  0.00033683  0.0189082 0.7000
                      *** Initiating the SOSCF procedure ***
                      *** Re-Reading the Fockian *** 
                      *** Removing any level shift *** 
ITER      Energy       Delta-E        Grad      Rot      Max-DP    RMS-DP
  1   -283.89146141  -0.0008647708  0.001427  0.001427  0.018583  0.001012
               *** Restarting incremental Fock matrix formation ***
  2   -283.89344816  -0.0019867507  0.001912  0.007446  0.008803  0.000419
  3   -283.89331968   0.0001284877  0.005919  0.007172  0.007592  0.000237
  4   -283.89349197  -0.0001722902  0.001249  0.002456  0.006824  0.000200
  5   -283.89347140   0.0000205627  0.001708  0.001796  0.004551  0.000122
  6   -283.89351188  -0.0000404803  0.000241  0.000469  0.000966  0.000037
  7   -283.89351035   0.0000015300  0.000488  0.000263  0.000635  0.000025
  8   -283.89351265  -0.0000022910  0.000020  0.000060  0.000116  0.000005
  9   -283.89351264   0.0000000017  0.000027  0.000023  0.000048  0.000002
 10   -283.89351266  -0.0000000113  0.000006  0.000010  0.000028  0.000001
 11   -283.89351266  -0.0000000007  0.000006  0.000006  0.000018  0.000001
                  ***Gradient check signals convergence***
              ***Rediagonalizing the Fockian in SOSCF/NRSCF***

               *****************************************************
               *                     SUCCESS                       *
               *           SCF CONVERGED AFTER  12 CYCLES          *
               *****************************************************

Setting up the final grid:

General Integration Accuracy     IntAcc      ...  4.670
Radial Grid Type                 RadialGrid  ... Gauss-Chebyshev
Angular Grid (max. acc.)         AngularGrid ... Lebedev-302
Angular grid pruning method      GridPruning ... 3 (G Style)
Weight generation scheme         WeightScheme... Becke
Basis function cutoff            BFCut       ...    1.0000e-11
Integration weight cutoff        WCut        ...    1.0000e-14
Grids for H and He will be reduced by one unit

# of grid points (after initial pruning)     ...  48030 (   0.0 sec)
# of grid points (after weights+screening)   ...  45356 (   0.1 sec)
nearest neighbour list constructed           ...    0.0 sec
Grid point re-assignment to atoms done       ...    0.0 sec
Grid point division into batches done        ...    0.1 sec
Reduced shell lists constructed in    0.4 sec

Total number of grid points                  ...    45356
Total number of batches                      ...      714
Average number of points per batch           ...       63
Average number of grid points per atom       ...     4536
Average number of shells per batch           ...    32.96 (73.24%)
Average number of basis functions per batch  ...    68.90 (72.52%)
Average number of large shells per batch     ...    26.59 (80.68%)
Average number of large basis fcns per batch ...    54.30 (78.81%)
Maximum spatial batch extension              ...  19.72, 20.87, 25.61 au
Average spatial batch extension              ...   2.70,  2.76,  2.85 au

Final grid set up in    0.5 sec
Final integration                            ... done (   0.4 sec)
Change in XC energy                          ...     0.000118200
Integrated number of electrons               ...    40.000000090
Previous integrated no of electrons          ...    39.998588128
Total Energy       :         -283.89339446 Eh           -7725.13200 eV
  Last Energy change         ...   -2.1123e-10  Tolerance :   1.0000e-08
  Last MAX-Density change    ...    3.4718e-06  Tolerance :   1.0000e-07
             **** THE GBW FILE WAS UPDATED (4-tct_opt.gbw) ****
             **** DENSITY FILE WAS UPDATED (4-tct_opt.scfp.tmp) ****
             **** ENERGY FILE WAS UPDATED (4-tct_opt.en.tmp) ****
Total SCF time: 0 days 0 hours 0 min 4 sec 

-------------------------   --------------------
FINAL SINGLE POINT ENERGY      -283.893394455821
-------------------------   --------------------

------------------------------------------------------------------------------
                         ORCA SCF GRADIENT CALCULATION
------------------------------------------------------------------------------

Gradient of the Kohn-Sham DFT energy:
Kohn-Sham wavefunction type      ... RKS
Hartree-Fock exchange scaling    ...    0.000
Number of operators              ...    1
Number of atoms                  ...   10
Basis set dimensions             ...   95
Integral neglect threshold       ... 2.5e-11
Integral primitive cutoff        ... 2.5e-12

Nuclear repulsion gradient       ... done
One Electron Gradient            
  ECP gradient                   ... done
Pre-screening matrix             ... done
RI-J gradient                    ... done
Exchange-correlation gradient    ... done

------------------
CARTESIAN GRADIENT
------------------

   1   N   :    0.033565051   -0.013317375    0.000000000
   2   C   :   -0.010753508    0.009347558   -0.000000002
   3   H   :   -0.012988047    0.002708661    0.009131627
   4   H   :   -0.012988047    0.002708662   -0.009131627
   5   C   :    0.002877498    0.009635496    0.000000001
   6   H   :    0.002961297    0.000468820   -0.001291337
   7   H   :    0.002961295    0.000468819    0.001291339
   8   O   :    0.008459825   -0.010891969   -0.000000000
   9   O   :   -0.012700087   -0.002504173   -0.000000000
  10   H   :   -0.001395278    0.001375501    0.000000000

Difference to translation invariance:
           :   -0.0000000000   -0.0000000000    0.0000000000

Norm of the cartesian gradient     ...    0.0500983738
RMS gradient                       ...    0.0091466698
MAX gradient                       ...    0.0335650509

-------
TIMINGS
-------

Total SCF gradient time            ...        2.302 sec

One electron gradient       ....       0.034 sec  (  1.5%)
Prescreening matrices       ....       0.040 sec  (  1.8%)
RI-J Coulomb gradient       ....       0.357 sec  ( 15.5%)
XC gradient                 ....       1.710 sec  ( 74.3%)
[...]
     15       0.000000   0.000000   0.000000   0.000000   0.000000   0.000000
     16       0.000000   0.000000   0.000000   0.000000   0.000000   0.000000
     17       0.000000   0.000000   0.000000   0.000000   0.000000   0.000000
     18       0.000000   0.000000   0.000000   0.000000   0.000000   0.000000
     19       0.000000   0.000000   0.000000   0.000000   0.000000   0.000000
     20       0.000000   0.000000   0.000000   0.000000   0.000000   0.000000
     21       0.000000   0.000000   0.000000   0.000000   0.000000   0.000000
     22       0.000000   0.000000   0.000000   0.000000   0.000000   0.000000
     23       0.000000   0.000000   0.000000   0.000000   0.000000   0.000000
     24       0.000000   0.000000   0.000000   0.000000   0.000000   0.000000
     25       0.000000   0.000000   0.000000   0.000000   0.000000   0.000000
     26       0.000000   0.000000   0.000000   0.000000   0.000000   0.000000
     27       0.000000   0.000000   0.000000   0.000000   0.000000   0.000000
     28       0.000000   0.000000   0.000000   0.000000   0.000000   0.000000
     29       0.000000   0.000000   0.000000   0.000000   0.000000   0.000000
                  6          7          8          9         10         11    
      0      -0.000002  -0.227346   0.000004   0.071023   0.000003  -0.000811
      1      -0.000002  -0.217285   0.000004  -0.298582  -0.000012   0.059257
      2      -0.131496   0.000007   0.076361  -0.000003   0.017552  -0.000002
      3       0.000002   0.099885  -0.000001   0.064269   0.000001  -0.220801
      4       0.000001   0.011580  -0.000000  -0.201227  -0.000009  -0.118795
      5       0.167677  -0.000006  -0.063526   0.000005  -0.039179   0.000003
      6       0.289757  -0.239555   0.448899   0.056672  -0.151819   0.019624
      7       0.004270  -0.473844   0.427926  -0.423367  -0.019355   0.336678
      8      -0.353232   0.016515  -0.279394   0.015435   0.133255  -0.019445
      9      -0.289763  -0.239596  -0.448895   0.056624   0.151825   0.019619
     10      -0.004280  -0.473890  -0.427916  -0.423374   0.019324   0.336683
     11      -0.353230  -0.016532  -0.279386  -0.015476   0.133252   0.019435
     12       0.000002   0.128529  -0.000002  -0.139400  -0.000005  -0.001252
     13      -0.000001   0.015352   0.000000   0.120579   0.000005  -0.176940
     14       0.011269  -0.000003  -0.046015   0.000035  -0.217420   0.000004
     15      -0.294979   0.081496   0.060025   0.063795  -0.392014  -0.195806
     16       0.026897   0.145878  -0.080277  -0.326300  -0.186736  -0.137142
     17       0.399731   0.010588  -0.102576   0.004448   0.272597  -0.018272
     18       0.294984   0.081484  -0.060028   0.063669   0.392022  -0.195830
     19      -0.026891   0.145885   0.080271  -0.326357   0.186711  -0.137151
     20       0.399729  -0.010611  -0.102575  -0.004535   0.272592   0.018259
     21      -0.000001  -0.076649   0.000001   0.183264   0.000011   0.217085
     22      -0.000000  -0.102853   0.000001   0.344640   0.000013  -0.062946
     23      -0.153715   0.000006   0.041252  -0.000012   0.073343  -0.000002
     24       0.000000   0.129216  -0.000002  -0.191335  -0.000011   0.008957
     25       0.000002   0.291561  -0.000004   0.067132   0.000004   0.184399
     26       0.125455  -0.000002   0.013435  -0.000003   0.016203  -0.000001
     27      -0.000000  -0.080712  -0.000001  -0.204368  -0.000023  -0.578176
     28       0.000003   0.359240  -0.000006   0.073760   0.000003   0.373692
     29       0.050540   0.000010   0.140104  -0.000088   0.580673   0.000003
                 12         13         14         15         16         17    
      0      -0.000000  -0.001285  -0.034957  -0.000000  -0.140635   0.000028
      1      -0.000000  -0.145143  -0.164969   0.000000   0.114746  -0.000019
      2      -0.006250   0.000001   0.000001   0.010557  -0.000008  -0.036760
      3       0.000002  -0.159899   0.095980   0.000000   0.130942  -0.000033
      4       0.000001  -0.105642   0.134576  -0.000000  -0.182946   0.000028
      5       0.051004  -0.000000  -0.000000  -0.157824   0.000021   0.090345
      6       0.032070   0.139217   0.185648  -0.155446  -0.101386  -0.179500
      7      -0.060652   0.514508   0.565584   0.392889   0.274107   0.375942
      8      -0.028586  -0.094777  -0.141377   0.117252  -0.033444   0.093336
      9      -0.032070   0.139219   0.185647   0.155447  -0.101301   0.179533
     10       0.060651   0.514503   0.565586  -0.392886   0.273932  -0.376052
     11      -0.028586   0.094772   0.141369   0.117255   0.033487   0.093320
     12       0.000001   0.010368   0.016450  -0.000002   0.076433   0.000005
     13       0.000000   0.115913  -0.033129  -0.000002   0.033972   0.000002
     14       0.090235  -0.000002   0.000001   0.196457  -0.000020  -0.096619
     15       0.158817  -0.124124   0.090283  -0.459932   0.157288   0.112680
     16       0.066826  -0.148806   0.266632   0.142778  -0.276759   0.542955
     17      -0.074836  -0.024164   0.006580   0.205499  -0.014841  -0.016858
     18      -0.158816  -0.124114   0.090279   0.459934   0.157238  -0.112743
     19      -0.066825  -0.148802   0.266631  -0.142769  -0.277013  -0.542862
     20      -0.074834   0.024171  -0.006586   0.205496   0.014836  -0.016846
     21      -0.000002  -0.097488   0.037272   0.000000   0.040125  -0.000001
     22       0.000001   0.069765  -0.035101   0.000001  -0.037016  -0.000003
     23      -0.052228   0.000000   0.000000  -0.043544   0.000003   0.015676
     24       0.000001   0.179938  -0.117102   0.000001  -0.122758   0.000001
     25      -0.000002   0.008822  -0.001932   0.000000   0.062114  -0.000002
     26      -0.094934   0.000001  -0.000000  -0.036478   0.000001   0.009899
     27      -0.000008   0.460772  -0.138703  -0.000006   0.682937  -0.000023
     28      -0.000007  -0.084256   0.006923   0.000002  -0.211997   0.000006
     29       0.946494   0.000008  -0.000005   0.017578   0.000013   0.026701
                 18         19         20         21         22         23    
      0       0.135381   0.015714   0.009326  -0.000001   0.006308  -0.063461
      1      -0.062378   0.022979  -0.017178  -0.000000   0.005241   0.039720
      2       0.000007  -0.000002  -0.000005  -0.091732  -0.000000   0.000000
      3      -0.207948   0.013437   0.065038  -0.000002   0.067499  -0.014293
      4       0.060403  -0.164217   0.099927  -0.000000  -0.046875  -0.028140
      5      -0.000017   0.000003   0.000004   0.079458  -0.000000   0.000000
      6       0.043374  -0.066737   0.042216  -0.242203  -0.020502   0.531477
      7      -0.263294   0.029604  -0.061982   0.392114   0.032225  -0.195623
      8       0.063153   0.049979  -0.020905   0.085202   0.015660  -0.414471
      9       0.043306  -0.066729   0.042245   0.242203  -0.020501   0.531480
     10      -0.263157   0.029589  -0.062028  -0.392111   0.032224  -0.195618
     11      -0.063185  -0.049975   0.020916   0.085205  -0.015660   0.414469
     12       0.161514  -0.052929  -0.274648   0.000009   0.074244   0.007134
     13       0.057289  -0.028901  -0.133614   0.000004   0.033299   0.002331
     14       0.000021  -0.000002  -0.000001   0.023515   0.000000   0.000000
     15      -0.141420   0.067936  -0.249841   0.161086  -0.531979  -0.023493
     16       0.232834   0.681058  -0.012590  -0.496258   0.066107   0.059563
     17      -0.053935  -0.067617   0.234123  -0.021095   0.440919   0.004329
     18      -0.141373   0.067928  -0.249863  -0.161071  -0.531982  -0.023493
     19       0.233029   0.681062  -0.012537   0.496245   0.066106   0.059563
     20       0.053941   0.067605  -0.234123  -0.021086  -0.440915  -0.004330
     21       0.039226  -0.005359   0.066629  -0.000002  -0.014859  -0.001839
     22      -0.083706   0.031784  -0.021642   0.000000   0.006395   0.001775
     23      -0.000004   0.000000  -0.000000  -0.003581   0.000000  -0.000000
     24      -0.155485   0.016579   0.060062  -0.000002  -0.019017  -0.000794
     25       0.067946   0.004523   0.082837  -0.000002  -0.014957  -0.000176
     26      -0.000004   0.000000   0.000001  -0.001082  -0.000000  -0.000000
     27       0.713437   0.071742   0.772449  -0.000021  -0.133969  -0.007044
     28      -0.224856  -0.015755  -0.182038   0.000005   0.028176   0.002328
     29       0.000002   0.000002   0.000013  -0.006514  -0.000002  -0.000000
                 24         25         26         27         28         29    
      0      -0.001501  -0.001476   0.000000   0.057396  -0.000000   0.000071
      1      -0.008866  -0.000632   0.000000  -0.002834  -0.000000  -0.000287
      2      -0.000000  -0.000000   0.002186  -0.000000  -0.080065   0.000000
      3       0.011997   0.070719  -0.000000   0.001849  -0.000000  -0.000280
      4      -0.065699   0.003326  -0.000001   0.002834  -0.000000  -0.000452
      5       0.000001  -0.000000  -0.092519  -0.000000  -0.002425  -0.000000
      6      -0.005537   0.008168  -0.008205  -0.401659   0.428936  -0.001005
      7      -0.006702   0.002291  -0.007328   0.001766   0.013897   0.000324
      8       0.000423   0.010141  -0.010039  -0.580380   0.558966  -0.001453
      9      -0.005537   0.008168   0.008205  -0.401655  -0.428931  -0.001005
     10      -0.006702   0.002291   0.007328   0.001772  -0.013892   0.000324
     11      -0.000423  -0.010141  -0.010039   0.580384   0.558969   0.001454
     12      -0.336964   0.000968  -0.000000  -0.000013   0.000000   0.002723
     13       0.662925  -0.000404  -0.000000   0.000053  -0.000000   0.002259
     14       0.000005  -0.000000  -0.001359   0.000000   0.000150   0.000000
     15      -0.010388  -0.419324   0.434171  -0.006249   0.006900   0.001228
     16       0.104594  -0.017271   0.022439  -0.001999  -0.000068   0.000368
     17       0.002744  -0.566731   0.553613  -0.011028   0.011053   0.000264
     18      -0.010389  -0.419320  -0.434166  -0.006249  -0.006900   0.001228
     19       0.104593  -0.017264  -0.022432  -0.001999   0.000068   0.000368
     20      -0.002742   0.566735   0.553616   0.011028   0.011053  -0.000265
     21       0.233866  -0.000120  -0.000000  -0.000091   0.000000  -0.000849
     22      -0.411589   0.000246   0.000000   0.000197   0.000000   0.000488
     23      -0.000005   0.000000   0.000254   0.000000   0.000000  -0.000000
     24       0.040099  -0.000560   0.000000  -0.000121  -0.000000   0.019432
     25      -0.048469   0.000101   0.000000  -0.000024  -0.000000   0.057768
     26       0.000001   0.000000  -0.000114  -0.000000  -0.000018   0.000000
     27      -0.423472  -0.000595   0.000000  -0.000279   0.000000  -0.325497
     28       0.113130  -0.001592   0.000000   0.002707  -0.000000  -0.943564
     29      -0.000000   0.000000  -0.001125  -0.000000  -0.000070  -0.000008


-----------
IR SPECTRUM
-----------

 Mode    freq (cm**-1)   T**2         TX         TY         TZ
-------------------------------------------------------------------
   6:        53.84    0.012079  ( -0.000208   0.000249  -0.109906)
   7:       256.33    2.693133  (  1.033737  -1.274567  -0.000170)
   8:       268.87   42.237449  ( -0.000174   0.000009  -6.499034)
   9:       489.58   13.125076  ( -0.751173  -3.544124  -0.000407)
  10:       502.83   27.120048  ( -0.000593   0.000061   5.207691)
  11:       586.00   47.486735  ( -6.887462  -0.222710  -0.000002)
  12:       688.21   95.265653  ( -0.000124   0.000063   9.760413)
  13:       789.68   98.299085  (  0.214682   9.912265   0.000019)
  14:       872.49  125.936341  (  2.689340  10.895127  -0.000111)
  15:       881.26    3.872043  (  0.000246  -0.000422   1.967751)
  16:      1131.65  121.203208  ( 11.007516  -0.194403  -0.000067)
  17:      1135.41    0.882889  ( -0.000787   0.000650  -0.939621)
  18:      1142.38  104.235170  (  9.880209   2.572285   0.000203)
  19:      1290.91   17.754864  (  0.768936  -4.142898  -0.000007)
  20:      1318.79   56.047234  ( -7.042051  -2.541014   0.000011)
  21:      1329.14    0.863259  (  0.000304   0.000136  -0.929117)
  22:      1371.46    1.234169  (  0.421755  -1.027761   0.000006)
  23:      1599.94   21.985233  (  4.685140   0.186268  -0.000016)
  24:      1806.21  238.859891  (-10.022468  11.764779  -0.000035)
  25:      2971.64   15.724827  (  3.285119  -2.220995   0.000054)
  26:      3015.82    4.322064  ( -0.000042  -0.000093  -2.078958)
  27:      3419.77    0.773489  ( -0.859034  -0.188547  -0.000001)
  28:      3493.94    2.529242  (  0.000012  -0.000002   1.590359)
  29:      3617.25   49.734458  ( -3.666932  -6.023958  -0.000075)

The first frequency considered to be a vibration is 6
The total number of vibrations considered is 24


--------------------------
THERMOCHEMISTRY AT 298.15K
--------------------------

Temperature         ... 298.15 K
Pressure            ... 1.00 atm
Total Mass          ... 75.07 AMU

Throughout the following assumptions are being made:
  (1) The electronic state is orbitally nondegenerate
  (2) There are no thermally accessible electronically excited states
  (3) Hindered rotations indicated by low frequency modes are not
      treated as such but are treated as vibrations and this may
      cause some error
  (4) All equations used are the standard statistical mechanics
      equations for an ideal gas
  (5) All vibrations are strictly harmonic

freq.      53.84  E(vib)   ...       0.52 
freq.     256.33  E(vib)   ...       0.30 
freq.     268.87  E(vib)   ...       0.29 
freq.     489.58  E(vib)   ...       0.15 
freq.     502.83  E(vib)   ...       0.14 
freq.     586.00  E(vib)   ...       0.11 
freq.     688.21  E(vib)   ...       0.07 
freq.     789.68  E(vib)   ...       0.05 
freq.     872.49  E(vib)   ...       0.04 
freq.     881.26  E(vib)   ...       0.04 
freq.    1131.65  E(vib)   ...       0.01 
freq.    1135.41  E(vib)   ...       0.01 
freq.    1142.38  E(vib)   ...       0.01 
freq.    1290.91  E(vib)   ...       0.01 
freq.    1318.79  E(vib)   ...       0.01 
freq.    1329.14  E(vib)   ...       0.01 
freq.    1371.46  E(vib)   ...       0.01 
freq.    1599.94  E(vib)   ...       0.00 
freq.    1806.21  E(vib)   ...       0.00 
freq.    2971.64  E(vib)   ...       0.00 
freq.    3015.82  E(vib)   ...       0.00 
freq.    3419.77  E(vib)   ...       0.00 
freq.    3493.94  E(vib)   ...       0.00 
freq.    3617.25  E(vib)   ...       0.00 

------------
INNER ENERGY
------------

The inner energy is: U= E(el) + E(ZPE) + E(vib) + E(rot) + E(trans)
    E(el)   - is the total energy from the electronic structure calculation
              = E(kin-el) + E(nuc-el) + E(el-el) + E(nuc-nuc)
    E(ZPE)  - the the zero temperature vibrational energy from the frequency calculation
    E(vib)  - the the finite temperature correction to E(ZPE) due to population
              of excited vibrational states
    E(rot)  - is the rotational thermal energy
    E(trans)- is the translational thermal energy

Summary of contributions to the inner energy U:
Electronic energy                ...   -283.90166343 Eh
Zero point energy                ...      0.07753378 Eh      48.65 kcal/mol
Thermal vibrational correction   ...      0.00281337 Eh       1.77 kcal/mol
Thermal rotational correction    ...      0.00141627 Eh       0.89 kcal/mol
Thermal translational correction ...      0.00141627 Eh       0.89 kcal/mol
-----------------------------------------------------------------------
Total thermal energy                   -283.81848375 Eh


Summary of corrections to the electronic energy:
(perhaps to be used in another calculation)
Total thermal correction                  0.00564591 Eh       3.54 kcal/mol
Non-thermal (ZPE) correction              0.07753378 Eh      48.65 kcal/mol
-----------------------------------------------------------------------
Total correction                          0.08317969 Eh      52.20 kcal/mol


--------
ENTHALPY
--------

The enthalpy is H = U + kB*T
                kB is Boltzmann's constant
Total free energy                 ...   -283.81848375 Eh 
Thermal Enthalpy correction       ...      0.00094421 Eh       0.59 kcal/mol
-----------------------------------------------------------------------
Total Enthalpy                    ...   -283.81753954 Eh


Vibrational entropy computed according to the QRRHO of S. Grimme
Chem.Eur.J. 2012 18 9955

check  

-------
ENTROPY
-------

The entropy contributions are T*S = T*(S(el)+S(vib)+S(rot)+S(trans)
     S(el)   - electronic entropy
     S(vib)  - vibrational entropy
     S(rot)  - rotational entropy
     S(trans)- translational entropy
The entropies will be listed as mutliplied by the temperature to get
units of energy

Electronic entropy                ...      0.00000000 Eh      0.00 kcal/mol
Vibrational entropy               ...      0.00465155 Eh      2.92 kcal/mol
Rotational entropy                ...      0.01105227 Eh      6.94 kcal/mol
Translational entropy             ...      0.01846507 Eh     11.59 kcal/mol
-----------------------------------------------------------------------
Final entropy term                ...      0.03416889 Eh     21.44 kcal/mol


CAUTION: The rotational entropy is not quite correctly treated here
         because it includes a symmetry number that is not yet correctly
         implemented in ORCA!
For a nonlinear molecule the correct rotational entropy is:
    S(rot) = R*(ln(qrot/sn)+1.5)
    R    = 8.31441 J/mol/K = 1.987191683e-3 kcal/mol/K
    qrot = 81168.4016148
    sn is the rotational symmetry number. We have assumed 3 here
       if it is different for your molecule then you should correct
       the printed rotational entropy by manually evaluating the equation
       as given above

For convenience we print out the resulting values for sn=1 - 12:
 sn= 1  qrot/sn=   81168.4016 T*S(rot)=     7.59 kcal/mol T*S(tot)=    22.09 kcal/mol
 sn= 2  qrot/sn=   40584.2008 T*S(rot)=     7.18 kcal/mol T*S(tot)=    21.68 kcal/mol
 sn= 3  qrot/sn=   27056.1339 T*S(rot)=     6.94 kcal/mol T*S(tot)=    21.44 kcal/mol
 sn= 4  qrot/sn=   20292.1004 T*S(rot)=     6.76 kcal/mol T*S(tot)=    21.27 kcal/mol
 sn= 5  qrot/sn=   16233.6803 T*S(rot)=     6.63 kcal/mol T*S(tot)=    21.14 kcal/mol
 sn= 6  qrot/sn=   13528.0669 T*S(rot)=     6.52 kcal/mol T*S(tot)=    21.03 kcal/mol
 sn= 7  qrot/sn=   11595.4859 T*S(rot)=     6.43 kcal/mol T*S(tot)=    20.94 kcal/mol
 sn= 8  qrot/sn=   10146.0502 T*S(rot)=     6.35 kcal/mol T*S(tot)=    20.86 kcal/mol
 sn= 9  qrot/sn=    9018.7113 T*S(rot)=     6.28 kcal/mol T*S(tot)=    20.79 kcal/mol
 sn=10  qrot/sn=    8116.8402 T*S(rot)=     6.22 kcal/mol T*S(tot)=    20.73 kcal/mol
 sn=11  qrot/sn=    7378.9456 T*S(rot)=     6.17 kcal/mol T*S(tot)=    20.67 kcal/mol
 sn=12  qrot/sn=    6764.0335 T*S(rot)=     6.11 kcal/mol T*S(tot)=    20.62 kcal/mol


-------------------
GIBBS FREE ENTHALPY
-------------------

The Gibbs free enthalpy is G = H - T*S

Total enthalpy                    ...   -283.81753954 Eh 
Total entropy correction          ...     -0.03416889 Eh    -21.44 kcal/mol
-----------------------------------------------------------------------
Final Gibbs free enthalpy         ...   -283.85170843 Eh

For completeness - the Gibbs free enthalpy minus the electronic energy
G-E(el)                           ...      0.04995501 Eh     31.35 kcal/mol


Timings for individual modules:

Sum of individual times         ...      129.990 sec (=   2.167 min)
GTO integral calculation        ...        1.781 sec (=   0.030 min)   1.4 %
SCF iterations                  ...       43.392 sec (=   0.723 min)  33.4 %
SCF Gradient evaluation         ...       20.784 sec (=   0.346 min)  16.0 %
Geometry relaxation             ...        0.441 sec (=   0.007 min)   0.3 %
Analytical frequency calculation...       63.592 sec (=   1.060 min)  48.9 %
                             ****ORCA TERMINATED NORMALLY****
TOTAL RUN TIME: 0 days 0 hours 2 minutes 10 seconds 472 msec
