
                                 *****************
                                 * O   R   C   A *
                                 *****************

           --- An Ab Initio, DFT and Semiempirical electronic structure package ---

                  #######################################################
                  #                        -***-                        #
                  #  Department of molecular theory and spectroscopy    #
                  #              Directorship: Frank Neese              #
                  # Max Planck Institute for Chemical Energy Conversion #
                  #                  D-45470 Muelheim/Ruhr              #
                  #                       Germany                       #
                  #                                                     #
                  #                  All rights reserved                #
                  #                        -***-                        #
                  #######################################################


                         Program Version 4.0.0 -  RELEASE  -


 With contributions from (in alphabetic order):
   Daniel Aravena         : Magnetic Properties
   Michael Atanasov       : Ab Initio Ligand Field Theory
   Ute Becker             : Parallelization
   Martin Brehm           : Molecular dynamics
   Dmytro Bykov           : SCF Hessian
   Vijay G. Chilkuri      : MRCI spin determinant printing
   Dipayan Datta          : RHF DLPNO-CCSD density
   Achintya Kumar Dutta   : EOM-CC, STEOM-CC
   Dmitry Ganyushin       : Spin-Orbit,Spin-Spin,Magnetic field MRCI
   Yang Guo               : DLPNO-NEVPT2, CIM, IAO-localization
   Andreas Hansen         : Spin unrestricted coupled pair/coupled cluster methods
   Lee Huntington         : MR-EOM, pCC
   Robert Izsak           : Overlap fitted RIJCOSX, COSX-SCS-MP3, EOM
   Christian Kollmar      : KDIIS, OOCD, Brueckner-CCSD(T), CCSD density
   Simone Kossmann        : Meta GGA functionals, TD-DFT gradient, OOMP2, MP2 Hessian
   Martin Krupicka        : AUTO-CI
   Dagmar Lenk            : GEPOL surface
   Dimitrios Liakos       : Extrapolation schemes; parallel MDCI
   Dimitrios Manganas     : ROCIS; embedding schemes
   Dimitrios Pantazis     : SARC Basis sets
   Taras Petrenko         : DFT Hessian,TD-DFT gradient, ASA, ECA, R-Raman, ABS, FL, XAS/XES, NRVS
   Peter Pinski           : DLPNO-MP2
   Christoph Reimann      : Effective Core Potentials
   Marius Retegan         : Local ZFS, SOC
   Christoph Riplinger    : Optimizer, TS searches, QM/MM, DLPNO-CCSD(T), (RO)-DLPNO pert. Triples
   Tobias Risthaus        : Range-separated hybrids, TD-DFT gradient, RPA, STAB
   Michael Roemelt        : Restricted open shell CIS
   Masaaki Saitow         : Open-shell DLPNO
   Barbara Sandhoefer     : DKH picture change effects
   Kantharuban Sivalingam : CASSCF convergence, NEVPT2, FIC-MRCI
   Georgi Stoychev        : AutoAux
   Boris Wezisla          : Elementary symmetry handling
   Frank Wennmohs         : Technical directorship


 We gratefully acknowledge several colleagues who have allowed us to
 interface, adapt or use parts of their codes:
   Stefan Grimme, W. Hujo, H. Kruse,             : VdW corrections, initial TS optimization,
                  C. Bannwarth                     DFT functionals, gCP, sTDA/sTD-DF
   Ed Valeev                                     : LibInt (2-el integral package), F12 methods
   Garnet Chan, S. Sharma, J. Yang, R. Olivares  : DMRG
   Ulf Ekstrom                                   : XCFun DFT Library
   Mihaly Kallay                                 : mrcc  (arbitrary order and MRCC methods)
   Jiri Pittner, Ondrej Demel                    : Mk-CCSD
   Frank Weinhold                                : gennbo (NPA and NBO analysis)
   Christopher J. Cramer and Donald G. Truhlar   : smd solvation model


 Your calculation uses the libint2 library for the computation of 2-el integrals
 For citations please refer to: http://libint.valeyev.net

 This ORCA versions uses:
   CBLAS   interface :  Fast vector & matrix operations
   LAPACKE interface :  Fast linear algebra routines
   SCALAPACK package :  Parallel linear algebra routines


Your calculation utilizes the basis: def2-SVP
   F. Weigend and R. Ahlrichs, Phys. Chem. Chem. Phys. 7, 3297 (2005).

Your calculation utilizes the auxiliary basis: def2/J
   F. Weigend, Phys. Chem. Chem. Phys. 8, 1057 (2006).

================================================================================
                                        WARNINGS
                       Please study these warnings very carefully!
================================================================================

Warning: TCutStore was < 0. Adjusted to Thresh (uncritical)

WARNING: Geometry Optimization
  ===> : Switching off AutoStart
         For restart on a previous wavefunction, please use MOREAD

INFO   : the flag for use of LIBINT has been found!

================================================================================
                                       INPUT FILE
================================================================================
NAME = 5-gct_opt.in
|  1> ! rks pbe def2-svp opt anfreq
|  2> 
|  3> * xyz 0 1
|  4> N                     0.0438   -1.92595   0.
|  5> C                    -0.79717  -0.74596   0.
|  6> H                     0.86105  -1.67231  -0.5189
|  7> H                    -0.58115  -2.70014  -0.10748
|  8> C                     0.05661   0.51399   0.
|  9> H                    -1.42307  -0.74417  -0.90115
| 10> H                    -1.42307  -0.74417   0.90115
| 11> O                    -0.49262   1.64619   0.
| 12> O                     1.48291   0.41117   0.
| 13> H                     1.86759   1.29071   0.
| 14> *
| 15> 
| 16>                          ****END OF INPUT****
================================================================================

                       *****************************
                       * Geometry Optimization Run *
                       *****************************

Geometry optimization settings:
Update method            Update   .... BFGS
Choice of coordinates    CoordSys .... Redundant Internals
Initial Hessian          InHess   .... Almoef's Model

Convergence Tolerances:
Energy Change            TolE     ....  5.0000e-06 Eh
Max. Gradient            TolMAXG  ....  3.0000e-04 Eh/bohr
RMS Gradient             TolRMSG  ....  1.0000e-04 Eh/bohr
Max. Displacement        TolMAXD  ....  4.0000e-03 bohr
RMS Displacement         TolRMSD  ....  2.0000e-03 bohr

------------------------------------------------------------------------------
                        ORCA OPTIMIZATION COORDINATE SETUP
------------------------------------------------------------------------------

The optimization will be done in new redundant internal coordinates
Making redundant internal coordinates   ...  (new redundants) done
Evaluating the initial hessian          ...  (Almloef) done
Evaluating the coordinates              ...  done
Calculating the B-matrix                .... done
Calculating the G-matrix                .... done
Diagonalizing the G-matrix              .... done
The first mode is                       ....   12
The number of degrees of freedom        ....   24

    -----------------------------------------------------------------
                    Redundant Internal Coordinates


    -----------------------------------------------------------------
         Definition                    Initial Value    Approx d2E/dq
    -----------------------------------------------------------------
      1. B(C   1,N   0)                  1.4490         0.450548   
      2. B(H   2,N   0)                  1.0007         0.447675   
      3. B(H   3,N   0)                  1.0007         0.447678   
      4. B(C   4,C   1)                  1.5220         0.384749   
      5. B(H   5,C   1)                  1.0972         0.350713   
      6. B(H   6,C   1)                  1.0972         0.350713   
      7. B(O   7,C   4)                  1.2584         0.907529   
      8. B(O   8,C   4)                  1.4300         0.483121   
      9. B(H   9,O   8)                  0.9600         0.519987   
     10. A(C   1,N   0,H   3)          105.5187         0.341809   
     11. A(H   2,N   0,H   3)          130.5693         0.306581   
     12. A(C   1,N   0,H   2)          105.5194         0.341808   
     13. A(C   4,C   1,H   5)          108.5818         0.324482   
     14. A(N   0,C   1,H   5)          109.4151         0.331040   
     15. A(N   0,C   1,H   6)          109.4151         0.331040   
     16. A(H   5,C   1,H   6)          110.4354         0.288441   
     17. A(C   4,C   1,H   6)          108.5818         0.324482   
     18. A(N   0,C   1,C   4)          110.4001         0.374780   
     19. A(O   7,C   4,O   8)          120.0013         0.438669   
     20. A(C   1,C   4,O   8)          119.9995         0.379331   
     21. A(C   1,C   4,O   7)          119.9992         0.423862   
     22. A(C   4,O   8,H   9)          109.4996         0.354687   
     23. D(H   6,C   1,N   0,H   2)   -151.9996         0.017317   
     24. D(H   5,C   1,N   0,H   3)    -54.1574         0.017317   
     25. D(H   6,C   1,N   0,H   3)     66.9568         0.017317   
     26. D(H   5,C   1,N   0,H   2)     86.8861         0.017317   
     27. D(C   4,C   1,N   0,H   2)    -32.5568         0.017317   
     28. D(C   4,C   1,N   0,H   3)   -173.6003         0.017317   
     29. D(O   7,C   4,C   1,N   0)    180.0000         0.011030   
     30. D(O   8,C   4,C   1,H   6)    119.9460         0.011030   
     31. D(O   8,C   4,C   1,H   5)   -119.9460         0.011030   
     32. D(O   8,C   4,C   1,N   0)      0.0000         0.011030   
     33. D(O   7,C   4,C   1,H   6)    -60.0540         0.011030   
     34. D(O   7,C   4,C   1,H   5)     60.0540         0.011030   
     35. D(H   9,O   8,C   4,O   7)      0.0000         0.016748   
     36. D(H   9,O   8,C   4,C   1)    180.0000         0.016748   
    -----------------------------------------------------------------

Number of atoms                         .... 10
Number of degrees of freedom            .... 36

         *************************************************************
         *                GEOMETRY OPTIMIZATION CYCLE   1            *
         *************************************************************
---------------------------------
CARTESIAN COORDINATES (ANGSTROEM)
---------------------------------
  N      0.043800   -1.925950    0.000000
  C     -0.797170   -0.745960    0.000000
  H      0.861050   -1.672310   -0.518900
  H     -0.581150   -2.700140   -0.107480
  C      0.056610    0.513990    0.000000
  H     -1.423070   -0.744170   -0.901150
  H     -1.423070   -0.744170    0.901150
  O     -0.492620    1.646190    0.000000
  O      1.482910    0.411170    0.000000
  H      1.867590    1.290710    0.000000

----------------------------
CARTESIAN COORDINATES (A.U.)
----------------------------
  NO LB      ZA    FRAG     MASS         X           Y           Z
   0 N     7.0000    0    14.007    0.082770   -3.639518    0.000000
   1 C     6.0000    0    12.011   -1.506433   -1.409660    0.000000
   2 H     1.0000    0     1.008    1.627149   -3.160208   -0.980579
   3 H     1.0000    0     1.008   -1.098214   -5.102525   -0.203108
   4 C     6.0000    0    12.011    0.106977    0.971300    0.000000
   5 H     1.0000    0     1.008   -2.689213   -1.406277   -1.702927
   6 H     1.0000    0     1.008   -2.689213   -1.406277    1.702927
   7 O     8.0000    0    15.999   -0.930917    3.110848    0.000000
   8 O     8.0000    0    15.999    2.802294    0.776999    0.000000
   9 H     1.0000    0     1.008    3.529234    2.439088    0.000000

--------------------------------
INTERNAL COORDINATES (ANGSTROEM)
--------------------------------
 N      0   0   0     0.000000000000     0.00000000     0.00000000
 C      1   0   0     1.449002050033     0.00000000     0.00000000
 H      1   2   0     1.000743734480   105.51940040     0.00000000
 H      1   2   3     1.000742029196   105.51869708   218.95646833
 C      2   1   3     1.521977099335   110.40006620   327.44324295
 H      2   1   3     1.097189745030   109.41511246    86.88611598
 H      2   1   3     1.097189745030   109.41511246   208.00036992
 O      5   2   1     1.258384056201   119.99923806   180.00000000
 O      5   2   1     1.430001273566   119.99950633     0.00000000
 H      9   5   2     0.959984017575   109.49964339   180.00000000

---------------------------
INTERNAL COORDINATES (A.U.)
---------------------------
 N      0   0   0     0.000000000000     0.00000000     0.00000000
 C      1   0   0     2.738217042053     0.00000000     0.00000000
 H      1   2   0     1.891131588404   105.51940040     0.00000000
 H      1   2   3     1.891128365886   105.51869708   218.95646833
 C      2   1   3     2.876119899843   110.40006620   327.44324295
 H      2   1   3     2.073388135054   109.41511246    86.88611598
 H      2   1   3     2.073388135054   109.41511246   208.00036992
 O      5   2   1     2.378001237512   119.99923806   180.00000000
 O      5   2   1     2.702310778198   119.99950633     0.00000000
 H      9   5   2     1.814106886159   109.49964339   180.00000000

---------------------
BASIS SET INFORMATION
---------------------
There are 4 groups of distinct atoms

 Group   1 Type N   : 7s4p1d contracted to 3s2p1d pattern {511/31/1}
 Group   2 Type C   : 7s4p1d contracted to 3s2p1d pattern {511/31/1}
 Group   3 Type H   : 4s1p contracted to 2s1p pattern {31/1}
 Group   4 Type O   : 7s4p1d contracted to 3s2p1d pattern {511/31/1}

Atom   0N    basis set group =>   1
Atom   1C    basis set group =>   2
Atom   2H    basis set group =>   3
Atom   3H    basis set group =>   3
Atom   4C    basis set group =>   2
Atom   5H    basis set group =>   3
Atom   6H    basis set group =>   3
Atom   7O    basis set group =>   4
Atom   8O    basis set group =>   4
Atom   9H    basis set group =>   3
-------------------------------
AUXILIARY BASIS SET INFORMATION
-------------------------------
There are 4 groups of distinct atoms

 Group   1 Type N   : 12s5p4d2f1g contracted to 6s4p3d1f1g pattern {711111/2111/211/2/1}
 Group   2 Type C   : 12s5p4d2f1g contracted to 6s4p3d1f1g pattern {711111/2111/211/2/1}
 Group   3 Type H   : 5s2p1d contracted to 3s1p1d pattern {311/2/1}
 Group   4 Type O   : 12s5p4d2f1g contracted to 6s4p3d1f1g pattern {711111/2111/211/2/1}

Atom   0N    basis set group =>   1
Atom   1C    basis set group =>   2
Atom   2H    basis set group =>   3
Atom   3H    basis set group =>   3
Atom   4C    basis set group =>   2
Atom   5H    basis set group =>   3
Atom   6H    basis set group =>   3
Atom   7O    basis set group =>   4
Atom   8O    basis set group =>   4
Atom   9H    basis set group =>   3
-------------------------
ECP PARAMETER INFORMATION
-------------------------



------------------------------------------------------------------------------
                           ORCA GTO INTEGRAL CALCULATION
                           -- RI-GTO INTEGRALS CHOSEN --
------------------------------------------------------------------------------

                         BASIS SET STATISTICS AND STARTUP INFO

Gaussian basis set:
 # of primitive gaussian shells          ...   85
 # of primitive gaussian functions       ...  155
 # of contracted shells                  ...   45
 # of contracted basis functions         ...   95
 Highest angular momentum                ...    2
 Maximum contraction depth               ...    5
Auxiliary gaussian basis set:
 # of primitive gaussian shells          ...  160
 # of primitive gaussian functions       ...  430
 # of contracted shells                  ...  100
 # of contracted aux-basis functions     ...  300
 Highest angular momentum                ...    4
 Maximum contraction depth               ...    7
Ratio of auxiliary to basis functions    ...  3.16
Integral package used                  ... LIBINT
 One Electron integrals                  
   ECP integrals                         ... done
 Ordering auxiliary basis shells         ... done
 Integral threshhold             Thresh  ...  2.500e-11
 Primitive cut-off               TCut    ...  2.500e-12
 Pre-screening matrix                    ... done
 Shell pair data                         ... 
 Ordering of the shell pairs             ... done (   0.000 sec) 1019 of 1035 pairs
 Determination of significant pairs      ... done (   0.000 sec)
 Creation of shell pair data             ... done (   0.000 sec)
 Storage of shell pair data              ... done (   0.000 sec)
 Shell pair data done in (   0.001 sec)
 Computing two index integrals           ... done
 Cholesky decomposition of the V-matrix  ... done


Timings:
 Total evaluation time                   ...   0.160 sec (  0.003 min)
 One electron matrix time                ...   0.010 sec (  0.000 min) =  6.5%
 Schwartz matrix evaluation time         ...   0.107 sec (  0.002 min) = 67.3%
 Two index repulsion integral time       ...   0.003 sec (  0.000 min) =  1.9%
 Cholesky decomposition of V             ...   0.001 sec (  0.000 min) =  0.9%
 Three index repulsion integral time     ...   0.000 sec (  0.000 min) =  0.0%

-------------------------------------------------------------------------------
                                 ORCA SCF
-------------------------------------------------------------------------------

------------
SCF SETTINGS
------------
Hamiltonian:
 Density Functional     Method          .... DFT(GTOs)
 Exchange Functional    Exchange        .... PBE
   PBE kappa parameter   XKappa         ....  0.804000
   PBE mue parameter    XMuePBE         ....  0.219520
 Correlation Functional Correlation     .... PBE
   PBE beta parameter  CBetaPBE         ....  0.066725
 LDA part of GGA corr.  LDAOpt          .... PW91-LDA
 Gradients option       PostSCFGGA      .... off
   NL short-range parameter             ....  6.400000
 RI-approximation to the Coulomb term is turned on
   Number of auxiliary basis functions  .... 300


General Settings:
 Integral files         IntName         .... 5-gct_opt
 Hartree-Fock type      HFTyp           .... RHF
 Total Charge           Charge          ....    0
 Multiplicity           Mult            ....    1
 Number of Electrons    NEL             ....   40
 Basis Dimension        Dim             ....   95
 Nuclear Repulsion      ENuc            ....    176.7597695441 Eh

Convergence Acceleration:
 DIIS                   CNVDIIS         .... on
   Start iteration      DIISMaxIt       ....    12
   Startup error        DIISStart       ....  0.200000
   # of expansion vecs  DIISMaxEq       ....     5
   Bias factor          DIISBfac        ....   1.050
   Max. coefficient     DIISMaxC        ....  10.000
 Newton-Raphson         CNVNR           .... off
 SOSCF                  CNVSOSCF        .... on
   Start iteration      SOSCFMaxIt      ....   150
   Startup grad/error   SOSCFStart      ....  0.003300
 Level Shifting         CNVShift        .... on
   Level shift para.    LevelShift      ....    0.2500
   Turn off err/grad.   ShiftErr        ....    0.0010
 Zerner damping         CNVZerner       .... off
 Static damping         CNVDamp         .... on
   Fraction old density DampFac         ....    0.7000
   Max. Damping (<1)    DampMax         ....    0.9800
   Min. Damping (>=0)   DampMin         ....    0.0000
   Turn off err/grad.   DampErr         ....    0.1000
 Fernandez-Rico         CNVRico         .... off

SCF Procedure:
 Maximum # iterations   MaxIter         ....   125
 SCF integral mode      SCFMode         .... Direct
   Integral package                     .... LIBINT
 Reset frequeny         DirectResetFreq ....    20
 Integral Threshold     Thresh          ....  2.500e-11 Eh
 Primitive CutOff       TCut            ....  2.500e-12 Eh

Convergence Tolerance:
 Convergence Check Mode ConvCheckMode   .... Total+1el-Energy
 Convergence forced     ConvForced      .... 0
 Energy Change          TolE            ....  1.000e-08 Eh
 1-El. energy change                    ....  1.000e-05 Eh
 Orbital Gradient       TolG            ....  1.000e-05
 Orbital Rotation angle TolX            ....  1.000e-05
 DIIS Error             TolErr          ....  5.000e-07


Diagonalization of the overlap matrix:
Smallest eigenvalue                        ... 2.326e-03
Time for diagonalization                   ...    0.003 sec
Threshold for overlap eigenvalues          ... 1.000e-08
Number of eigenvalues below threshold      ... 0
Time for construction of square roots      ...    0.001 sec
Total time needed                          ...    0.004 sec

-------------------
DFT GRID GENERATION
-------------------

General Integration Accuracy     IntAcc      ...  4.340
Radial Grid Type                 RadialGrid  ... Gauss-Chebyshev
Angular Grid (max. acc.)         AngularGrid ... Lebedev-110
Angular grid pruning method      GridPruning ... 3 (G Style)
Weight generation scheme         WeightScheme... Becke
Basis function cutoff            BFCut       ...    1.0000e-11
Integration weight cutoff        WCut        ...    1.0000e-14
Grids for H and He will be reduced by one unit

# of grid points (after initial pruning)     ...  12416 (   0.0 sec)
# of grid points (after weights+screening)   ...  11830 (   0.0 sec)
nearest neighbour list constructed           ...    0.0 sec
Grid point re-assignment to atoms done       ...    0.0 sec
Grid point division into batches done        ...    0.0 sec
Reduced shell lists constructed in    0.1 sec

Total number of grid points                  ...    11830
Total number of batches                      ...      191
Average number of points per batch           ...       61
Average number of grid points per atom       ...     1183
Average number of shells per batch           ...    35.91 (79.80%)
Average number of basis functions per batch  ...    75.53 (79.50%)
Average number of large shells per batch     ...    29.70 (82.70%)
Average number of large basis fcns per batch ...    61.02 (80.79%)
Maximum spatial batch extension              ...  22.98, 19.32, 25.60 au
Average spatial batch extension              ...   4.09,  3.99,  4.44 au

Time for grid setup =    0.153 sec

------------------------------
INITIAL GUESS: MODEL POTENTIAL
------------------------------
Loading Hartree-Fock densities                     ... done
Calculating cut-offs                               ... done
Setting up the integral package                    ... done
Initializing the effective Hamiltonian             ... done
Starting the Coulomb interaction                   ... done (   0.0 sec)
Reading the grid                                   ... done
Mapping shells                                     ... done
Starting the XC term evaluation                    ... done (   0.1 sec)
  promolecular density results
     # of electrons  =     39.996132045
     EX              =    -34.503367587
     EC              =     -1.324037428
     EX+EC           =    -35.827405015
Transforming the Hamiltonian                       ... done (   0.0 sec)
Diagonalizing the Hamiltonian                      ... done (   0.0 sec)
Back transforming the eigenvectors                 ... done (   0.0 sec)
Now organizing SCF variables                       ... done
                      ------------------
                      INITIAL GUESS DONE (   0.4 sec)
                      ------------------
--------------
SCF ITERATIONS
--------------
ITER       Energy         Delta-E        Max-DP      RMS-DP      [F,P]     Damp
               ***  Starting incremental Fock matrix formation  ***
  0   -283.6490482555   0.000000000000 0.11699075  0.00499331  0.2805005 0.7000
  1   -283.7662821864  -0.117233930880 0.05856389  0.00264938  0.0997090 0.7000
                               ***Turning on DIIS***
  2   -283.7956694806  -0.029387294264 0.05690392  0.00311793  0.0331215 0.0000
  3   -283.8623041277  -0.066634647087 0.03906633  0.00180981  0.0619627 0.0000
  4   -283.8702510698  -0.007946942084 0.01885999  0.00070106  0.0412025 0.0000
  5   -283.8727740864  -0.002523016539 0.00549380  0.00021116  0.0083575 0.0000
  6   -283.8728944387  -0.000120352312 0.00256877  0.00010013  0.0041549 0.0000
                      *** Initiating the SOSCF procedure ***
                           *** Shutting down DIIS ***
                      *** Re-Reading the Fockian *** 
                      *** Removing any level shift *** 
ITER      Energy       Delta-E        Grad      Rot      Max-DP    RMS-DP
  7   -283.87291577  -0.0000213287  0.000170  0.000170  0.001301  0.000059
               *** Restarting incremental Fock matrix formation ***
  8   -283.87291747  -0.0000017021  0.000218  0.000731  0.000834  0.000041
  9   -283.87291496   0.0000025087  0.000527  0.000550  0.000686  0.000028
 10   -283.87291812  -0.0000031602  0.000100  0.000409  0.000426  0.000015
 11   -283.87291761   0.0000005131  0.000316  0.000348  0.000322  0.000011
 12   -283.87291819  -0.0000005800  0.000025  0.000058  0.000127  0.000005
 13   -283.87291815   0.0000000334  0.000049  0.000028  0.000083  0.000003
                  ***Gradient check signals convergence***
              ***Rediagonalizing the Fockian in SOSCF/NRSCF***

               *****************************************************
               *                     SUCCESS                       *
               *           SCF CONVERGED AFTER  14 CYCLES          *
               *****************************************************

Setting up the final grid:

General Integration Accuracy     IntAcc      ...  4.670
Radial Grid Type                 RadialGrid  ... Gauss-Chebyshev
Angular Grid (max. acc.)         AngularGrid ... Lebedev-302
Angular grid pruning method      GridPruning ... 3 (G Style)
Weight generation scheme         WeightScheme... Becke
Basis function cutoff            BFCut       ...    1.0000e-11
Integration weight cutoff        WCut        ...    1.0000e-14
Grids for H and He will be reduced by one unit

# of grid points (after initial pruning)     ...  48030 (   0.0 sec)
# of grid points (after weights+screening)   ...  45328 (   0.1 sec)
nearest neighbour list constructed           ...    0.0 sec
Grid point re-assignment to atoms done       ...    0.0 sec
Grid point division into batches done        ...    0.1 sec
Reduced shell lists constructed in    0.4 sec

Total number of grid points                  ...    45328
Total number of batches                      ...      714
Average number of points per batch           ...       63
Average number of grid points per atom       ...     4533
Average number of shells per batch           ...    32.81 (72.90%)
Average number of basis functions per batch  ...    68.59 (72.20%)
Average number of large shells per batch     ...    26.81 (81.72%)
Average number of large basis fcns per batch ...    54.83 (79.95%)
Maximum spatial batch extension              ...  20.88, 19.78, 21.37 au
Average spatial batch extension              ...   2.71,  2.66,  2.95 au

Final grid set up in    0.5 sec
Final integration                            ... done (   0.4 sec)
Change in XC energy                          ...     0.000763768
Integrated number of electrons               ...    40.000017511
Previous integrated no of electrons          ...    40.001748529

----------------
TOTAL SCF ENERGY
----------------

Total Energy       :         -283.87215443 Eh           -7724.55403 eV

Components:
Nuclear Repulsion  :          176.75976954 Eh            4809.87786 eV
Electronic Energy  :         -460.63192398 Eh          -12534.43189 eV
One Electron Energy:         -737.65006645 Eh          -20072.47877 eV
Two Electron Energy:          277.01814247 Eh            7538.04688 eV

Virial components:
Potential Energy   :         -565.28886227 Eh          -15382.29196 eV
Kinetic Energy     :          281.41670783 Eh            7657.73793 eV
Virial Ratio       :            2.00872530


DFT components:
N(Alpha)           :       20.000008755485 electrons
N(Beta)            :       20.000008755485 electrons
N(Total)           :       40.000017510969 electrons
E(X)               :      -35.071195221590 Eh       
E(C)               :       -1.344417818781 Eh       
E(XC)              :      -36.415613040371 Eh       

---------------
SCF CONVERGENCE
---------------

  Last Energy change         ...   -4.7447e-08  Tolerance :   1.0000e-08
  Last MAX-Density change    ...    8.6549e-06  Tolerance :   1.0000e-07
  Last RMS-Density change    ...    2.9379e-07  Tolerance :   5.0000e-09
  Last Orbital Gradient      ...    1.8009e-06  Tolerance :   1.0000e-05
  Last Orbital Rotation      ...    2.6366e-06  Tolerance :   1.0000e-05

             **** THE GBW FILE WAS UPDATED (5-gct_opt.gbw) ****
             **** DENSITY FILE WAS UPDATED (5-gct_opt.scfp.tmp) ****
             **** ENERGY FILE WAS UPDATED (5-gct_opt.en.tmp) ****
----------------
ORBITAL ENERGIES
----------------

  NO   OCC          E(Eh)            E(eV) 
   0   2.0000     -18.805639      -511.7274 
   1   2.0000     -18.748176      -510.1638 
   2   2.0000     -13.968293      -380.0966 
   3   2.0000     -10.027801      -272.8703 
   4   2.0000      -9.939024      -270.4546 
   5   2.0000      -0.978129       -26.6163 
   6   2.0000      -0.897821       -24.4309 
   7   2.0000      -0.805698       -21.9242 
   8   2.0000      -0.631696       -17.1893 
   9   2.0000      -0.555023       -15.1029 
  10   2.0000      -0.475811       -12.9475 
  11   2.0000      -0.423578       -11.5262 
  12   2.0000      -0.419729       -11.4214 
  13   2.0000      -0.397101       -10.8057 
  14   2.0000      -0.367962       -10.0128 
  15   2.0000      -0.348613        -9.4862 
  16   2.0000      -0.334787        -9.1100 
  17   2.0000      -0.272334        -7.4106 
  18   2.0000      -0.225383        -6.1330 
  19   2.0000      -0.179486        -4.8841 
  20   0.0000      -0.051102        -1.3906 
  21   0.0000       0.014609         0.3975 
  22   0.0000       0.051318         1.3964 
  23   0.0000       0.082876         2.2552 
  24   0.0000       0.110556         3.0084 
  25   0.0000       0.118826         3.2334 
  26   0.0000       0.139172         3.7871 
  27   0.0000       0.187723         5.1082 
  28   0.0000       0.232765         6.3339 
  29   0.0000       0.274074         7.4579 
  30   0.0000       0.382475        10.4077 
  31   0.0000       0.436334        11.8732 
  32   0.0000       0.443968        12.0810 
  33   0.0000       0.465574        12.6689 
  34   0.0000       0.523402        14.2425 
  35   0.0000       0.543018        14.7763 
  36   0.0000       0.552405        15.0317 
  37   0.0000       0.567816        15.4511 
  38   0.0000       0.585296        15.9267 
  39   0.0000       0.621850        16.9214 
  40   0.0000       0.627862        17.0850 
  41   0.0000       0.679303        18.4848 
  42   0.0000       0.727712        19.8020 
  43   0.0000       0.755048        20.5459 
  44   0.0000       0.796016        21.6607 
  45   0.0000       0.808996        22.0139 
  46   0.0000       0.894824        24.3494 
  47   0.0000       0.910986        24.7892 
  48   0.0000       0.941940        25.6315 
  49   0.0000       1.022122        27.8133 
  50   0.0000       1.054078        28.6829 
  51   0.0000       1.123530        30.5728 
  52   0.0000       1.147513        31.2254 
  53   0.0000       1.172551        31.9067 
  54   0.0000       1.190422        32.3930 
  55   0.0000       1.334176        36.3048 
  56   0.0000       1.360364        37.0174 
  57   0.0000       1.472450        40.0674 
  58   0.0000       1.480107        40.2758 
  59   0.0000       1.509608        41.0785 
  60   0.0000       1.557308        42.3765 
  61   0.0000       1.560945        42.4755 
  62   0.0000       1.595121        43.4054 
  63   0.0000       1.686426        45.8900 
  64   0.0000       1.697807        46.1997 
  65   0.0000       1.728456        47.0337 
  66   0.0000       1.758916        47.8625 
  67   0.0000       1.777084        48.3569 
  68   0.0000       1.829223        49.7757 
  69   0.0000       1.891867        51.4803 
  70   0.0000       1.993412        54.2435 
  71   0.0000       2.079183        56.5774 
  72   0.0000       2.092049        56.9275 
  73   0.0000       2.160536        58.7912 
  74   0.0000       2.203498        59.9602 
  75   0.0000       2.216451        60.3127 
  76   0.0000       2.302287        62.6484 
  77   0.0000       2.362906        64.2979 
  78   0.0000       2.541567        69.1595 
  79   0.0000       2.578790        70.1724 
  80   0.0000       2.603239        70.8377 
  81   0.0000       2.616988        71.2119 
  82   0.0000       2.754065        74.9419 
  83   0.0000       2.771084        75.4050 
  84   0.0000       2.793866        76.0250 
  85   0.0000       2.813230        76.5519 
  86   0.0000       2.851096        77.5823 
  87   0.0000       2.974715        80.9461 
  88   0.0000       3.023894        82.2843 
  89   0.0000       3.037415        82.6523 
  90   0.0000       3.146771        85.6280 
  91   0.0000       3.316218        90.2389 
  92   0.0000       3.387043        92.1661 
  93   0.0000       3.466835        94.3374 
  94   0.0000       3.649170        99.2990 

                    ********************************
                    * MULLIKEN POPULATION ANALYSIS *
                    ********************************

-----------------------
MULLIKEN ATOMIC CHARGES
-----------------------
   0 N :   -0.232412
   1 C :    0.066945
   2 H :    0.112405
   3 H :    0.103396
   4 C :    0.094245
   5 H :    0.045226
   6 H :    0.059062
   7 O :   -0.230835
   8 O :   -0.196469
   9 H :    0.178439
Sum of atomic charges:   -0.0000000

--------------------------------
MULLIKEN REDUCED ORBITAL CHARGES
--------------------------------
  0 N s       :     3.373496  s :     3.373496
      pz      :     1.718049  p :     3.842878
      px      :     1.078944
      py      :     1.045885
      dz2     :     0.001940  d :     0.016039
      dxz     :     0.003696
      dyz     :     0.002040
      dx2y2   :     0.002194
      dxy     :     0.006169
  1 C s       :     2.974391  s :     2.974391
      pz      :     1.034766  p :     2.910854
      px      :     1.009883
      py      :     0.866204
      dz2     :     0.006780  d :     0.047810
      dxz     :     0.012124
      dyz     :     0.008089
      dx2y2   :     0.008395
      dxy     :     0.012422
  2 H s       :     0.839158  s :     0.839158
      pz      :     0.017342  p :     0.048437
      px      :     0.021253
      py      :     0.009842
  3 H s       :     0.849584  s :     0.849584
      pz      :     0.014878  p :     0.047021
      px      :     0.013748
      py      :     0.018395
  4 C s       :     3.116435  s :     3.116435
      pz      :     0.854144  p :     2.680967
      px      :     0.830299
      py      :     0.996523
      dz2     :     0.006382  d :     0.108353
      dxz     :     0.014918
      dyz     :     0.014358
      dx2y2   :     0.041509
      dxy     :     0.031186
  5 H s       :     0.932970  s :     0.932970
      pz      :     0.010967  p :     0.021805
      px      :     0.007071
      py      :     0.003767
  6 H s       :     0.919206  s :     0.919206
      pz      :     0.011281  p :     0.021732
      px      :     0.007075
      py      :     0.003377
  7 O s       :     3.787071  s :     3.787071
      pz      :     1.379833  p :     4.428284
      px      :     1.655529
      py      :     1.392922
      dz2     :     0.001738  d :     0.015481
      dxz     :     0.001003
      dyz     :     0.003872
      dx2y2   :     0.004148
      dxy     :     0.004720
  8 O s       :     3.709482  s :     3.709482
      pz      :     1.767564  p :     4.476240
      px      :     1.296054
      py      :     1.412622
      dz2     :     0.001690  d :     0.010747
      dxz     :     0.001480
      dyz     :     0.000654
      dx2y2   :     0.004697
      dxy     :     0.002225
  9 H s       :     0.754788  s :     0.754788
      pz      :     0.017008  p :     0.066774
      px      :     0.016920
      py      :     0.032846


                     *******************************
                     * LOEWDIN POPULATION ANALYSIS *
                     *******************************

----------------------
LOEWDIN ATOMIC CHARGES
----------------------
   0 N :   -0.113149
   1 C :   -0.007101
   2 H :    0.048479
   3 H :    0.055631
   4 C :    0.105508
   5 H :    0.030283
   6 H :    0.045350
   7 O :   -0.188284
   8 O :   -0.062613
   9 H :    0.085896

-------------------------------
LOEWDIN REDUCED ORBITAL CHARGES
-------------------------------
  0 N s       :     3.077847  s :     3.077847
      pz      :     1.684072  p :     3.995575
      px      :     1.186555
      py      :     1.124948
      dz2     :     0.003526  d :     0.039727
      dxz     :     0.007830
      dyz     :     0.003460
      dx2y2   :     0.007181
      dxy     :     0.017730
  1 C s       :     2.845159  s :     2.845159
      pz      :     1.073596  p :     3.045657
      px      :     1.026852
      py      :     0.945208
      dz2     :     0.018391  d :     0.116286
      dxz     :     0.032975
      dyz     :     0.014999
      dx2y2   :     0.016515
      dxy     :     0.033406
  2 H s       :     0.815169  s :     0.815169
      pz      :     0.055612  p :     0.136352
      px      :     0.056746
      py      :     0.023994
  3 H s       :     0.812934  s :     0.812934
      pz      :     0.043362  p :     0.131435
      px      :     0.039365
      py      :     0.048708
  4 C s       :     2.901092  s :     2.901092
      pz      :     0.828707  p :     2.759434
      px      :     0.891433
      py      :     1.039293
      dz2     :     0.014398  d :     0.233966
      dxz     :     0.027086
      dyz     :     0.025646
      dx2y2   :     0.094530
      dxy     :     0.072307
  5 H s       :     0.901277  s :     0.901277
      pz      :     0.032920  p :     0.068440
      px      :     0.023258
      py      :     0.012263
  6 H s       :     0.888506  s :     0.888506
      pz      :     0.033564  p :     0.066144
      px      :     0.021463
      py      :     0.011116
  7 O s       :     3.589525  s :     3.589525
      pz      :     1.381236  p :     4.571613
      px      :     1.690876
      py      :     1.499500
      dz2     :     0.003943  d :     0.027146
      dxz     :     0.001264
      dyz     :     0.004817
      dx2y2   :     0.007675
      dxy     :     0.009447
  8 O s       :     3.456500  s :     3.456500
      pz      :     1.730119  p :     4.584020
      px      :     1.349603
      py      :     1.504298
      dz2     :     0.003921  d :     0.022093
      dxz     :     0.002293
      dyz     :     0.000256
      dx2y2   :     0.010728
      dxy     :     0.004895
  9 H s       :     0.734486  s :     0.734486
      pz      :     0.046459  p :     0.179618
      px      :     0.041700
      py      :     0.091459


                      *****************************
                      * MAYER POPULATION ANALYSIS *
                      *****************************

  NA   - Mulliken gross atomic population
  ZA   - Total nuclear charge
  QA   - Mulliken gross atomic charge
  VA   - Mayer's total valence
  BVA  - Mayer's bonded valence
  FA   - Mayer's free valence

  ATOM       NA         ZA         QA         VA         BVA        FA
  0 N      7.2324     7.0000    -0.2324     3.0406     3.0406     0.0000
  1 C      5.9331     6.0000     0.0669     3.9860     3.9860    -0.0000
  2 H      0.8876     1.0000     0.1124     1.0244     1.0244    -0.0000
  3 H      0.8966     1.0000     0.1034     1.0043     1.0043     0.0000
  4 C      5.9058     6.0000     0.0942     4.3002     4.3002     0.0000
  5 H      0.9548     1.0000     0.0452     0.9831     0.9831    -0.0000
  6 H      0.9409     1.0000     0.0591     0.9877     0.9877    -0.0000
  7 O      8.2308     8.0000    -0.2308     2.2477     2.2477    -0.0000
  8 O      8.1965     8.0000    -0.1965     2.2530     2.2530     0.0000
  9 H      0.8216     1.0000     0.1784     1.0364     1.0364     0.0000

  Mayer bond orders larger than 0.1
B(  0-N ,  1-C ) :   1.0927 B(  0-N ,  2-H ) :   0.9548 B(  0-N ,  3-H ) :   0.9598 
B(  1-C ,  4-C ) :   1.0006 B(  1-C ,  5-H ) :   0.9243 B(  1-C ,  6-H ) :   0.9211 
B(  4-C ,  7-O ) :   2.0403 B(  4-C ,  8-O ) :   1.1627 B(  7-O ,  8-O ) :   0.1103 
B(  8-O ,  9-H ) :   0.9437 

-------
TIMINGS
-------

Total SCF time: 0 days 0 hours 0 min 5 sec 

Total time                  ....       5.396 sec
Sum of individual times     ....       5.378 sec  ( 99.7%)

Fock matrix formation       ....       4.497 sec  ( 83.3%)
  Split-RI-J                ....       2.491 sec  ( 55.4% of F)
  XC integration            ....       1.981 sec  ( 44.0% of F)
    Basis function eval.    ....       0.842 sec  ( 42.5% of XC)
    Density eval.           ....       0.321 sec  ( 16.2% of XC)
    XC-Functional eval.     ....       0.235 sec  ( 11.9% of XC)
    XC-Potential eval.      ....       0.533 sec  ( 26.9% of XC)
Diagonalization             ....       0.013 sec  (  0.2%)
Density matrix formation    ....       0.001 sec  (  0.0%)
Population analysis         ....       0.002 sec  (  0.0%)
Initial guess               ....       0.242 sec  (  4.5%)
Orbital Transformation      ....       0.000 sec  (  0.0%)
Orbital Orthonormalization  ....       0.000 sec  (  0.0%)
DIIS solution               ....       0.003 sec  (  0.1%)
SOSCF solution              ....       0.007 sec  (  0.1%)
Grid generation             ....       0.612 sec  ( 11.4%)

-------------------------   --------------------
FINAL SINGLE POINT ENERGY      -283.872154434100
-------------------------   --------------------

------------------------------------------------------------------------------
                         ORCA SCF GRADIENT CALCULATION
------------------------------------------------------------------------------

Gradient of the Kohn-Sham DFT energy:
Kohn-Sham wavefunction type      ... RKS
Hartree-Fock exchange scaling    ...    0.000
Number of operators              ...    1
Number of atoms                  ...   10
Basis set dimensions             ...   95
Integral neglect threshold       ... 2.5e-11
Integral primitive cutoff        ... 2.5e-12

Nuclear repulsion gradient       ... done
One Electron Gradient            
  ECP gradient                   ... done
Pre-screening matrix             ... done
RI-J gradient                    ... done
Exchange-correlation gradient    ... done

------------------
CARTESIAN GRADIENT
------------------

   1   N   :    0.014884806   -0.028138504   -0.035109626
   2   C   :   -0.040217176    0.010431555    0.000442482
   3   H   :   -0.014719559    0.022914993    0.018635590
   4   H   :   -0.010382551    0.024892037    0.016275553
   5   C   :    0.005003953   -0.079228344   -0.003674383
   6   H   :    0.013129561   -0.014043181    0.006976124
   7   H   :    0.008968326   -0.007695032   -0.005537748
   8   O   :   -0.029842760    0.052965902    0.000457182
   9   O   :    0.051116732    0.038652357    0.000997478
  10   H   :    0.002058667   -0.020751783    0.000537348

Difference to translation invariance:
           :    0.0000000000   -0.0000000000   -0.0000000000

Norm of the cartesian gradient     ...    0.1455929919
RMS gradient                       ...    0.0265815220
MAX gradient                       ...    0.0792283440

-------
TIMINGS
-------

Total SCF gradient time            ...        2.251 sec

One electron gradient       ....       0.029 sec  (  1.3%)
Prescreening matrices       ....       0.039 sec  (  1.7%)
RI-J Coulomb gradient       ....       0.368 sec  ( 16.4%)
XC gradient                 ....       1.713 sec  ( 76.1%)
------------------------------------------------------------------------------
                         ORCA GEOMETRY RELAXATION STEP
------------------------------------------------------------------------------

Reading the OPT-File                    .... done
Getting information on internals        .... done
Copying old internal coords+grads       .... done
Making the new internal coordinates     .... (new redundants).... done
Validating the new internal coordinates .... (new redundants).... done
Calculating the B-matrix                .... done
Calculating the G,G- and P matrices     .... done
Transforming gradient to internals      .... done
Projecting the internal gradient        .... done
Number of atoms                         ....  10
Number of internal coordinates          ....  36
Current Energy                          ....  -283.872154434 Eh
Current gradient norm                   ....     0.145592992 Eh/bohr
Maximum allowed component of the step   ....  0.300
Current trust radius                    ....  0.300
Evaluating the initial hessian          ....  (Almloef) done
Projecting the Hessian                  .... done
Forming the augmented Hessian           .... done
Diagonalizing the augmented Hessian     .... done
Last element of RFO vector              ....  0.965752717
Lowest eigenvalues of augmented Hessian:
 -0.026886298  0.011056866  0.012548993  0.016758439  0.017327969
Length of the computed step             ....  0.268665293
The final length of the internal step   ....  0.268665293
Converting the step to cartesian space:
 Initial RMS(Int)=    0.0447775488
Transforming coordinates:
 Iter   0:  RMS(Cart)=    0.0691338313 RMS(Int)=    1.0465448297
 Iter   1:  RMS(Cart)=    0.0021342934 RMS(Int)=    0.0016546598
 Iter   2:  RMS(Cart)=    0.0001441503 RMS(Int)=    0.0001045544
 Iter   3:  RMS(Cart)=    0.0000111606 RMS(Int)=    0.0000100465
 Iter   4:  RMS(Cart)=    0.0000009314 RMS(Int)=    0.0000006939
 Iter   5:  RMS(Cart)=    0.0000000769 RMS(Int)=    0.0000000728
done
Storing new coordinates                 .... done

                                .--------------------.
          ----------------------|Geometry convergence|-------------------------
          Item                value                   Tolerance       Converged
          ---------------------------------------------------------------------
          RMS gradient        0.0188124769            0.0001000000      NO
          MAX gradient        0.0606805925            0.0003000000      NO
          RMS step            0.0447775488            0.0020000000      NO
          MAX step            0.1043327717            0.0040000000      NO
          ........................................................
          Max(Bonds)      0.0537      Max(Angles)    5.98
          Max(Dihed)        3.51      Max(Improp)    0.00
          ---------------------------------------------------------------------

The optimization has not yet converged - more geometry cycles are needed


    ---------------------------------------------------------------------------
                         Redundant Internal Coordinates
                            (Angstroem and degrees)

        Definition                    Value    dE/dq     Step     New-Value
    ----------------------------------------------------------------------------
     1. B(C   1,N   0)                1.4490 -0.021940  0.0243    1.4733   
     2. B(H   2,N   0)                1.0007 -0.015879  0.0177    1.0185   
     3. B(H   3,N   0)                1.0007 -0.014521  0.0162    1.0169   
     4. B(C   4,C   1)                1.5220  0.008971 -0.0115    1.5104   
     5. B(H   5,C   1)                1.0972 -0.013228  0.0185    1.1157   
     6. B(H   6,C   1)                1.0972 -0.009690  0.0136    1.1108   
     7. B(O   7,C   4)                1.2584  0.060681 -0.0344    1.2240   
     8. B(O   8,C   4)                1.4300  0.051748 -0.0537    1.3763   
     9. B(H   9,O   8)                0.9600 -0.018188  0.0176    0.9776   
    10. A(C   1,N   0,H   3)          105.52 -0.024474    3.57    109.09   
    11. A(H   2,N   0,H   3)          130.57  0.032341   -5.98    124.59   
    12. A(C   1,N   0,H   2)          105.52 -0.025529    3.74    109.26   
    13. A(C   4,C   1,H   5)          108.58  0.012102   -2.23    106.35   
    14. A(N   0,C   1,H   5)          109.42 -0.009328    2.88    112.30   
    15. A(N   0,C   1,H   6)          109.42 -0.000567    0.62    110.04   
    16. A(H   5,C   1,H   6)          110.44  0.002640   -1.73    108.71   
    17. A(C   4,C   1,H   6)          108.58  0.008300   -2.04    106.54   
    18. A(N   0,C   1,C   4)          110.40 -0.013012    2.44    112.84   
    19. A(O   7,C   4,O   8)          120.00 -0.010399    1.42    121.42   
    20. A(C   1,C   4,O   8)          120.00  0.029678   -4.02    115.98   
    21. A(C   1,C   4,O   7)          120.00 -0.019279    2.60    122.60   
    22. A(C   4,O   8,H   9)          109.50  0.018504   -2.78    106.72   
    23. D(H   6,C   1,N   0,H   2)   -152.00  0.000101   -1.16   -153.16   
    24. D(H   5,C   1,N   0,H   3)    -54.16  0.000202    0.82    -53.34   
    25. D(H   6,C   1,N   0,H   3)     66.96 -0.002728    0.88     67.84   
    26. D(H   5,C   1,N   0,H   2)     86.89  0.003031   -1.22     85.66   
    27. D(C   4,C   1,N   0,H   2)    -32.56  0.001967   -1.78    -34.34   
    28. D(C   4,C   1,N   0,H   3)   -173.60 -0.000861    0.26   -173.35   
    29. D(O   7,C   4,C   1,N   0)    180.00 -0.002547    0.56    180.56   
    30. D(O   8,C   4,C   1,H   6)    119.95 -0.007278    3.51    123.46   
    31. D(O   8,C   4,C   1,H   5)   -119.95  0.007810   -1.06   -121.01   
    32. D(O   8,C   4,C   1,N   0)      0.00 -0.003917    2.55      2.55   
    33. D(O   7,C   4,C   1,H   6)    -60.05 -0.005909    1.52    -58.53   
    34. D(O   7,C   4,C   1,H   5)     60.05  0.009179   -3.06     57.00   
    35. D(H   9,O   8,C   4,O   7)      0.00 -0.000190    0.35      0.35   
    36. D(H   9,O   8,C   4,C   1)    180.00  0.001179   -1.65    178.35   
    ----------------------------------------------------------------------------

         *************************************************************
         *                GEOMETRY OPTIMIZATION CYCLE   2            *
         *************************************************************
---------------------------------
CARTESIAN COORDINATES (ANGSTROEM)
---------------------------------
  N      0.057136   -1.939531    0.009592
  C     -0.774470   -0.723414   -0.003197
  H      0.912584   -1.766112   -0.515171
  H     -0.541253   -2.752126   -0.116002
  C      0.043335    0.546311    0.017744
  H     -1.422086   -0.662693   -0.909703
  H     -1.422952   -0.695690    0.898197
  O     -0.466714    1.658994    0.020987
  O      1.409709    0.383596   -0.010023
  H      1.799592    1.280025   -0.018804

----------------------------
CARTESIAN COORDINATES (A.U.)
----------------------------
  NO LB      ZA    FRAG     MASS         X           Y           Z
   0 N     7.0000    0    14.007    0.107971   -3.665182    0.018126
   1 C     6.0000    0    12.011   -1.463535   -1.367053   -0.006041
   2 H     1.0000    0     1.008    1.724533   -3.337468   -0.973532
   3 H     1.0000    0     1.008   -1.022821   -5.200765   -0.219212
   4 C     6.0000    0    12.011    0.081891    1.032379    0.033531
   5 H     1.0000    0     1.008   -2.687352   -1.252307   -1.719090
   6 H     1.0000    0     1.008   -2.688990   -1.314664    1.697347
   7 O     8.0000    0    15.999   -0.881962    3.135044    0.039659
   8 O     8.0000    0    15.999    2.663964    0.724891   -0.018942
   9 H     1.0000    0     1.008    3.400735    2.418896   -0.035534

--------------------------------
INTERNAL COORDINATES (ANGSTROEM)
--------------------------------
 N      0   0   0     0.000000000000     0.00000000     0.00000000
 C      1   0   0     1.473320127771     0.00000000     0.00000000
 H      1   2   0     1.018450072738   109.21299716     0.00000000
 H      1   2   3     1.016933923264   109.04823954   220.95845425
 C      2   1   3     1.510444846985   112.83939793   325.65110574
 H      2   1   3     1.115727338506   112.30898671    85.71476344
 H      2   1   3     1.110769580482   110.06507124   206.85115990
 O      5   2   1     1.224019462896   122.58753284   180.54667142
 O      5   2   1     1.376308660997   115.96746929     2.54734080
 H      9   5   2     0.977583782206   106.72112178   178.36293089

---------------------------
INTERNAL COORDINATES (A.U.)
---------------------------
 N      0   0   0     0.000000000000     0.00000000     0.00000000
 C      1   0   0     2.784171549081     0.00000000     0.00000000
 H      1   2   0     1.924591718547   109.21299716     0.00000000
 H      1   2   3     1.921726611264   109.04823954   220.95845425
 C      2   1   3     2.854327101194   112.83939793   325.65110574
 H      2   1   3     2.108419109906   112.30898671    85.71476344
 H      2   1   3     2.099050305002   110.06507124   206.85115990
 O      5   2   1     2.313061567464   122.58753284   180.54667142
 O      5   2   1     2.600846445028   115.96746929     2.54734080
 H      9   5   2     1.847365621332   106.72112178   178.36293089

 One Electron integrals                  ... done
 Pre-screening matrix                    ... done

Diagonalization of the overlap matrix:
Smallest eigenvalue                        ... 2.321e-03
Time for diagonalization                   ...    0.002 sec
Threshold for overlap eigenvalues          ... 1.000e-08
Number of eigenvalues below threshold      ... 0
Time for construction of square roots      ...    0.001 sec
Total time needed                          ...    0.002 sec

-------------------
DFT GRID GENERATION
-------------------

General Integration Accuracy     IntAcc      ...  4.340
Radial Grid Type                 RadialGrid  ... Gauss-Chebyshev
Angular Grid (max. acc.)         AngularGrid ... Lebedev-110
Angular grid pruning method      GridPruning ... 3 (G Style)
Weight generation scheme         WeightScheme... Becke
Basis function cutoff            BFCut       ...    1.0000e-11
Integration weight cutoff        WCut        ...    1.0000e-14
Grids for H and He will be reduced by one unit

# of grid points (after initial pruning)     ...  12416 (   0.0 sec)
# of grid points (after weights+screening)   ...  11838 (   0.0 sec)
nearest neighbour list constructed           ...    0.0 sec
Grid point re-assignment to atoms done       ...    0.0 sec
Grid point division into batches done        ...    0.0 sec
Reduced shell lists constructed in    0.1 sec

Total number of grid points                  ...    11838
Total number of batches                      ...      191
Average number of points per batch           ...       61
Average number of grid points per atom       ...     1184
Average number of shells per batch           ...    35.96 (79.91%)
Average number of basis functions per batch  ...    75.81 (79.80%)
Average number of large shells per batch     ...    29.69 (82.56%)
Average number of large basis fcns per batch ...    61.08 (80.57%)
Maximum spatial batch extension              ...  23.45, 19.37, 25.60 au
Average spatial batch extension              ...   4.18,  3.89,  4.30 au

Time for grid setup =    0.099 sec

--------------
SCF ITERATIONS
--------------
ITER       Energy         Delta-E        Max-DP      RMS-DP      [F,P]     Damp
               ***  Starting incremental Fock matrix formation  ***
  0   -283.8871375363   0.000000000000 0.00616472  0.00041943  0.0181117 0.7000
                      *** Initiating the SOSCF procedure ***
                      *** Re-Reading the Fockian *** 
                      *** Removing any level shift *** 
ITER      Energy       Delta-E        Grad      Rot      Max-DP    RMS-DP
  1   -283.88847594  -0.0013384044  0.001796  0.001796  0.017877  0.001225
               *** Restarting incremental Fock matrix formation ***
  2   -283.89136511  -0.0028891707  0.003158  0.013086  0.014986  0.000682
  3   -283.89090547   0.0004596390  0.010096  0.012370  0.013158  0.000416
  4   -283.89147417  -0.0005687006  0.002161  0.003907  0.012927  0.000324
  5   -283.89137312   0.0001010481  0.002924  0.002806  0.008682  0.000208
  6   -283.89153036  -0.0001572313  0.000492  0.000797  0.001767  0.000066
  7   -283.89152545   0.0000049112  0.000937  0.000569  0.001150  0.000045
  8   -283.89153242  -0.0000069757  0.000043  0.000055  0.000194  0.000008
  9   -283.89153239   0.0000000312  0.000065  0.000030  0.000114  0.000005
 10   -283.89153246  -0.0000000687  0.000004  0.000010  0.000020  0.000001
                 **** Energy Check signals convergence ****
              ***Rediagonalizing the Fockian in SOSCF/NRSCF***

               *****************************************************
               *                     SUCCESS                       *
               *           SCF CONVERGED AFTER  11 CYCLES          *
               *****************************************************

Setting up the final grid:

General Integration Accuracy     IntAcc      ...  4.670
Radial Grid Type                 RadialGrid  ... Gauss-Chebyshev
Angular Grid (max. acc.)         AngularGrid ... Lebedev-302
Angular grid pruning method      GridPruning ... 3 (G Style)
Weight generation scheme         WeightScheme... Becke
Basis function cutoff            BFCut       ...    1.0000e-11
Integration weight cutoff        WCut        ...    1.0000e-14
Grids for H and He will be reduced by one unit

# of grid points (after initial pruning)     ...  48030 (   0.0 sec)
# of grid points (after weights+screening)   ...  45328 (   0.1 sec)
nearest neighbour list constructed           ...    0.0 sec
Grid point re-assignment to atoms done       ...    0.0 sec
Grid point division into batches done        ...    0.1 sec
Reduced shell lists constructed in    0.4 sec

Total number of grid points                  ...    45328
Total number of batches                      ...      713
Average number of points per batch           ...       63
Average number of grid points per atom       ...     4533
Average number of shells per batch           ...    32.87 (73.05%)
Average number of basis functions per batch  ...    68.91 (72.54%)
Average number of large shells per batch     ...    26.75 (81.37%)
Average number of large basis fcns per batch ...    54.71 (79.39%)
Maximum spatial batch extension              ...  22.81, 19.49, 20.80 au
Average spatial batch extension              ...   2.77,  2.60,  2.86 au

Final grid set up in    0.5 sec
Final integration                            ... done (   0.4 sec)
Change in XC energy                          ...     0.001176991
Integrated number of electrons               ...    40.000010508
Previous integrated no of electrons          ...    40.003501917
Total Energy       :         -283.89035547 Eh           -7725.04931 eV
  Last Energy change         ...   -8.4253e-10  Tolerance :   1.0000e-08
  Last MAX-Density change    ...    1.2397e-05  Tolerance :   1.0000e-07
             **** THE GBW FILE WAS UPDATED (5-gct_opt.gbw) ****
             **** DENSITY FILE WAS UPDATED (5-gct_opt.scfp.tmp) ****
             **** ENERGY FILE WAS UPDATED (5-gct_opt.en.tmp) ****
Total SCF time: 0 days 0 hours 0 min 4 sec 

-------------------------   --------------------
FINAL SINGLE POINT ENERGY      -283.890355468366
-------------------------   --------------------

------------------------------------------------------------------------------
                         ORCA SCF GRADIENT CALCULATION
------------------------------------------------------------------------------

Gradient of the Kohn-Sham DFT energy:
Kohn-Sham wavefunction type      ... RKS
Hartree-Fock exchange scaling    ...    0.000
Number of operators              ...    1
Number of atoms                  ...   10
Basis set dimensions             ...   95
Integral neglect threshold       ... 2.5e-11
Integral primitive cutoff        ... 2.5e-12

Nuclear repulsion gradient       ... done
One Electron Gradient            
  ECP gradient                   ... done
Pre-screening matrix             ... done
RI-J gradient                    ... done
Exchange-correlation gradient    ... done

------------------
CARTESIAN GRADIENT
------------------

   1   N   :    0.015157670   -0.029263393   -0.021363588
   2   C   :   -0.022119524    0.021938372    0.002021449
   3   H   :    0.001602600    0.015901802    0.008069159
   4   H   :   -0.011607807    0.007382940    0.011058755
   5   C   :   -0.002459220   -0.025869804    0.001207575
   6   H   :    0.004716737   -0.006544486   -0.001060426
   7   H   :    0.003430632   -0.002301405    0.001185502
   8   O   :   -0.005089709    0.010401211   -0.001106499
   9   O   :    0.014064590    0.012335984   -0.000103865
  10   H   :    0.002304031   -0.003981221    0.000091937

Difference to translation invariance:
           :    0.0000000000    0.0000000000    0.0000000000

Norm of the cartesian gradient     ...    0.0664616869
RMS gradient                       ...    0.0121341884
MAX gradient                       ...    0.0292633926

-------
TIMINGS
-------

Total SCF gradient time            ...        2.352 sec

One electron gradient       ....       0.038 sec  (  1.6%)
Prescreening matrices       ....       0.043 sec  (  1.8%)
RI-J Coulomb gradient       ....       0.390 sec  ( 16.6%)
XC gradient                 ....       1.725 sec  ( 73.3%)
------------------------------------------------------------------------------
                         ORCA GEOMETRY RELAXATION STEP
------------------------------------------------------------------------------

Reading the OPT-File                    .... done
Getting information on internals        .... done
Copying old internal coords+grads       .... done
Making the new internal coordinates     .... (new redundants).... done
Validating the new internal coordinates .... (new redundants).... done
Calculating the B-matrix                .... done
Calculating the G,G- and P matrices     .... done
Transforming gradient to internals      .... done
Projecting the internal gradient        .... done
Number of atoms                         ....  10
Number of internal coordinates          ....  36
Current Energy                          ....  -283.890355468 Eh
Current gradient norm                   ....     0.066461687 Eh/bohr
Maximum allowed component of the step   ....  0.300
Current trust radius                    ....  0.300
Updating the Hessian (BFGS)             .... done
Forming the augmented Hessian           .... done
Diagonalizing the augmented Hessian     .... done
Last element of RFO vector              ....  0.967200956
Lowest eigenvalues of augmented Hessian:
 -0.008643750  0.011092248  0.012653303  0.016756203  0.017329997
Length of the computed step             ....  0.262626313
The final length of the internal step   ....  0.262626313
Converting the step to cartesian space:
 Initial RMS(Int)=    0.0437710521
Transforming coordinates:
 Iter   0:  RMS(Cart)=    0.0434558082 RMS(Int)=    0.0441009003
 Iter   1:  RMS(Cart)=    0.0014484856 RMS(Int)=    0.0015269624
 Iter   2:  RMS(Cart)=    0.0000982919 RMS(Int)=    0.0001081601
 Iter   3:  RMS(Cart)=    0.0000090326 RMS(Int)=    0.0000088218
 Iter   4:  RMS(Cart)=    0.0000007405 RMS(Int)=    0.0000007433
 Iter   5:  RMS(Cart)=    0.0000000662 RMS(Int)=    0.0000000638
done
Storing new coordinates                 .... done

                                .--------------------.
          ----------------------|Geometry convergence|-------------------------
          Item                value                   Tolerance       Converged
          ---------------------------------------------------------------------
          Energy change      -0.0182010343            0.0000050000      NO
          RMS gradient        0.0067151286            0.0001000000      NO
          MAX gradient        0.0196535100            0.0003000000      NO
          RMS step            0.0437710521            0.0020000000      NO
          MAX step            0.1344492656            0.0040000000      NO
          ........................................................
          Max(Bonds)      0.0307      Max(Angles)    7.70
          Max(Dihed)        4.10      Max(Improp)    0.00
          ---------------------------------------------------------------------

The optimization has not yet converged - more geometry cycles are needed


    ---------------------------------------------------------------------------
                         Redundant Internal Coordinates
                            (Angstroem and degrees)

        Definition                    Value    dE/dq     Step     New-Value
    ----------------------------------------------------------------------------
     1. B(C   1,N   0)                1.4733  0.007831 -0.0107    1.4626   
     2. B(H   2,N   0)                1.0185 -0.000100  0.0022    1.0206   
     3. B(H   3,N   0)                1.0169 -0.000436  0.0026    1.0195   
     4. B(C   4,C   1)                1.5104 -0.001207  0.0012    1.5116   
     5. B(H   5,C   1)                1.1157 -0.002224  0.0068    1.1226   
     6. B(H   6,C   1)                1.1108 -0.001107  0.0039    1.1146   
     7. B(O   7,C   4)                1.2240  0.011574 -0.0144    1.2096   
     8. B(O   8,C   4)                1.3763  0.015254 -0.0307    1.3456   
     9. B(H   9,O   8)                0.9776 -0.002731  0.0062    0.9837   
    10. A(C   1,N   0,H   3)          109.05 -0.012247    2.40    111.45   
    11. A(H   2,N   0,H   3)          124.52  0.019654   -7.70    116.82   
    12. A(C   1,N   0,H   2)          109.21 -0.011740    2.29    111.51   
    13. A(C   4,C   1,H   5)          106.25  0.005391   -1.69    104.56   
    14. A(N   0,C   1,H   5)          112.31 -0.005538    2.72    115.03   
    15. A(N   0,C   1,H   6)          110.07  0.000113    0.29    110.36   
    16. A(H   5,C   1,H   6)          108.61  0.002732   -2.03    106.58   
    17. A(C   4,C   1,H   6)          106.49  0.002212   -1.18    105.31   
    18. A(N   0,C   1,C   4)          112.84 -0.004173    1.69    114.53   
    19. A(O   7,C   4,O   8)          121.41 -0.006376    1.48    122.89   
    20. A(C   1,C   4,O   8)          115.97  0.013458   -3.29    112.68   
    21. A(C   1,C   4,O   7)          122.59 -0.007088    1.79    124.38   
    22. A(C   4,O   8,H   9)          106.72  0.006822   -1.90    104.82   
    23. D(H   6,C   1,N   0,H   2)   -153.15  0.002804   -3.80   -156.95   
    24. D(H   5,C   1,N   0,H   3)    -53.33 -0.002417    2.99    -50.34   
    25. D(H   6,C   1,N   0,H   3)     67.81 -0.002593    2.41     70.22   
    26. D(H   5,C   1,N   0,H   2)     85.71  0.002980   -3.22     82.49   
    27. D(C   4,C   1,N   0,H   2)    -34.35  0.002972   -4.01    -38.36   
    28. D(C   4,C   1,N   0,H   3)   -173.39 -0.002425    2.20   -171.19   
    29. D(O   7,C   4,C   1,N   0)   -179.45 -0.002212    3.48   -175.97   
    30. D(O   8,C   4,C   1,H   6)    123.41 -0.002793    1.81    125.22   
    31. D(O   8,C   4,C   1,H   5)   -120.94  0.003881   -2.10   -123.04   
    32. D(O   8,C   4,C   1,N   0)      2.55 -0.001921    1.20      3.74   
    33. D(O   7,C   4,C   1,H   6)    -58.59 -0.003085    4.10    -54.50   
    34. D(O   7,C   4,C   1,H   5)     57.06  0.003589    0.19     57.24   
    35. D(H   9,O   8,C   4,O   7)      0.34  0.000302   -1.37     -1.03   
    36. D(H   9,O   8,C   4,C   1)    178.36 -0.000008    0.93    179.30   
    ----------------------------------------------------------------------------

         *************************************************************
         *                GEOMETRY OPTIMIZATION CYCLE   3            *
         *************************************************************
---------------------------------
CARTESIAN COORDINATES (ANGSTROEM)
---------------------------------
  N      0.064031   -1.931418    0.035379
  C     -0.752806   -0.718993   -0.008864
  H      0.912302   -1.833044   -0.523584
  H     -0.498289   -2.767102   -0.122267
  C      0.036873    0.569861    0.007723
  H     -1.418354   -0.627056   -0.908162
  H     -1.418715   -0.666535    0.883439
  O     -0.456923    1.673363    0.046978
  O      1.366384    0.364446   -0.019666
  H      1.760377    1.265839   -0.017356

----------------------------
CARTESIAN COORDINATES (A.U.)
----------------------------
  NO LB      ZA    FRAG     MASS         X           Y           Z
   0 N     7.0000    0    14.007    0.121000   -3.649850    0.066856
   1 C     6.0000    0    12.011   -1.422596   -1.358701   -0.016750
   2 H     1.0000    0     1.008    1.724000   -3.463951   -0.989430
   3 H     1.0000    0     1.008   -0.941630   -5.229065   -0.231051
   4 C     6.0000    0    12.011    0.069680    1.076881    0.014594
   5 H     1.0000    0     1.008   -2.680301   -1.184964   -1.716178
   6 H     1.0000    0     1.008   -2.680984   -1.259568    1.669458
   7 O     8.0000    0    15.999   -0.863459    3.162198    0.088776
   8 O     8.0000    0    15.999    2.582092    0.688703   -0.037164
   9 H     1.0000    0     1.008    3.326631    2.392089   -0.032798

--------------------------------
INTERNAL COORDINATES (ANGSTROEM)
--------------------------------
 N      0   0   0     0.000000000000     0.00000000     0.00000000
 C      1   0   0     1.462583727029     0.00000000     0.00000000
 H      1   2   0     1.020627270187   111.57438172     0.00000000
 H      1   2   3     1.019521873254   111.51664835   227.21904542
 C      2   1   3     1.511625824571   114.50082782   321.56526237
 H      2   1   3     1.122561650843   115.03952925    82.53219849
 H      2   1   3     1.114626618470   110.39284254   203.01074796
 O      5   2   1     1.209583545086   124.39838410   184.01534295
 O      5   2   1     1.345564755720   112.69246363     3.71917306
 H      9   5   2     0.983740411316   104.82083895   179.27843139

---------------------------
INTERNAL COORDINATES (A.U.)
---------------------------
 N      0   0   0     0.000000000000     0.00000000     0.00000000
 C      1   0   0     2.763882692015     0.00000000     0.00000000
 H      1   2   0     1.928706025465   111.57438172     0.00000000
 H      1   2   3     1.926617127992   111.51664835   227.21904542
 C      2   1   3     2.856558825402   114.50082782   321.56526237
 H      2   1   3     2.121334088536   115.03952925    82.53219849
 H      2   1   3     2.106339050487   110.39284254   203.01074796
 O      5   2   1     2.285781636309   124.39838410   184.01534295
 O      5   2   1     2.542748883767   112.69246363     3.71917306
 H      9   5   2     1.858999964258   104.82083895   179.27843139

 One Electron integrals                  ... done
 Pre-screening matrix                    ... done

Diagonalization of the overlap matrix:
Smallest eigenvalue                        ... 2.324e-03
Time for diagonalization                   ...    0.004 sec
Threshold for overlap eigenvalues          ... 1.000e-08
Number of eigenvalues below threshold      ... 0
Time for construction of square roots      ...    0.001 sec
Total time needed                          ...    0.005 sec

-------------------
DFT GRID GENERATION
-------------------

General Integration Accuracy     IntAcc      ...  4.340
Radial Grid Type                 RadialGrid  ... Gauss-Chebyshev
Angular Grid (max. acc.)         AngularGrid ... Lebedev-110
Angular grid pruning method      GridPruning ... 3 (G Style)
Weight generation scheme         WeightScheme... Becke
Basis function cutoff            BFCut       ...    1.0000e-11
Integration weight cutoff        WCut        ...    1.0000e-14
Grids for H and He will be reduced by one unit

# of grid points (after initial pruning)     ...  12416 (   0.0 sec)
# of grid points (after weights+screening)   ...  11844 (   0.0 sec)
nearest neighbour list constructed           ...    0.0 sec
Grid point re-assignment to atoms done       ...    0.0 sec
Grid point division into batches done        ...    0.0 sec
Reduced shell lists constructed in    0.1 sec

Total number of grid points                  ...    11844
Total number of batches                      ...      189
Average number of points per batch           ...       62
Average number of grid points per atom       ...     1184
Average number of shells per batch           ...    36.11 (80.23%)
Average number of basis functions per batch  ...    76.24 (80.25%)
Average number of large shells per batch     ...    29.95 (82.96%)
Average number of large basis fcns per batch ...    61.84 (81.11%)
Maximum spatial batch extension              ...  21.28, 19.41, 20.95 au
Average spatial batch extension              ...   4.23,  3.87,  4.27 au

Time for grid setup =    0.167 sec

--------------
SCF ITERATIONS
--------------
ITER       Energy         Delta-E        Max-DP      RMS-DP      [F,P]     Damp
               ***  Starting incremental Fock matrix formation  ***
  0   -283.8941338994   0.000000000000 0.00512361  0.00031882  0.0141236 0.7000
                      *** Initiating the SOSCF procedure ***
                      *** Re-Reading the Fockian *** 
                      *** Removing any level shift *** 
ITER      Energy       Delta-E        Grad      Rot      Max-DP    RMS-DP
  1   -283.89491952  -0.0007856199  0.001626  0.001626  0.014621  0.000969
               *** Restarting incremental Fock matrix formation ***
  2   -283.89674648  -0.0018269631  0.001992  0.007928  0.009312  0.000411
  3   -283.89659380   0.0001526862  0.006244  0.007162  0.007815  0.000240
  4   -283.89679029  -0.0001964972  0.001025  0.001730  0.006186  0.000170
  5   -283.89676928   0.0000210178  0.001227  0.001203  0.003987  0.000105
  6   -283.89680626  -0.0000369837  0.000243  0.000333  0.000871  0.000034
  7   -283.89680516   0.0000010988  0.000450  0.000250  0.000593  0.000023
  8   -283.89680680  -0.0000016359  0.000015  0.000037  0.000075  0.000004
  9   -283.89680679   0.0000000086  0.000023  0.000014  0.000049  0.000002
 10   -283.89680680  -0.0000000157  0.000004  0.000007  0.000012  0.000001
 11   -283.89680681  -0.0000000016  0.000004  0.000003  0.000007  0.000000
                  ***Gradient check signals convergence***
              ***Rediagonalizing the Fockian in SOSCF/NRSCF***

               *****************************************************
               *                     SUCCESS                       *
               *           SCF CONVERGED AFTER  12 CYCLES          *
               *****************************************************

Setting up the final grid:

General Integration Accuracy     IntAcc      ...  4.670
Radial Grid Type                 RadialGrid  ... Gauss-Chebyshev
Angular Grid (max. acc.)         AngularGrid ... Lebedev-302
Angular grid pruning method      GridPruning ... 3 (G Style)
Weight generation scheme         WeightScheme... Becke
Basis function cutoff            BFCut       ...    1.0000e-11
Integration weight cutoff        WCut        ...    1.0000e-14
Grids for H and He will be reduced by one unit

# of grid points (after initial pruning)     ...  48030 (   0.0 sec)
# of grid points (after weights+screening)   ...  45331 (   0.1 sec)
nearest neighbour list constructed           ...    0.0 sec
Grid point re-assignment to atoms done       ...    0.0 sec
Grid point division into batches done        ...    0.1 sec
Reduced shell lists constructed in    0.4 sec

Total number of grid points                  ...    45331
Total number of batches                      ...      712
Average number of points per batch           ...       63
Average number of grid points per atom       ...     4533
Average number of shells per batch           ...    32.92 (73.15%)
Average number of basis functions per batch  ...    69.03 (72.66%)
Average number of large shells per batch     ...    26.77 (81.33%)
Average number of large basis fcns per batch ...    54.72 (79.28%)
Maximum spatial batch extension              ...  22.71, 20.69, 20.80 au
Average spatial batch extension              ...   2.78,  2.64,  2.87 au

Final grid set up in    0.5 sec
Final integration                            ... done (   0.4 sec)
Change in XC energy                          ...     0.001291028
Integrated number of electrons               ...    39.999967403
Previous integrated no of electrons          ...    40.004045724
Total Energy       :         -283.89551578 Eh           -7725.18973 eV
  Last Energy change         ...   -9.5935e-10  Tolerance :   1.0000e-08
  Last MAX-Density change    ...    3.6156e-06  Tolerance :   1.0000e-07
             **** THE GBW FILE WAS UPDATED (5-gct_opt.gbw) ****
             **** DENSITY FILE WAS UPDATED (5-gct_opt.scfp.tmp) ****
             **** ENERGY FILE WAS UPDATED (5-gct_opt.en.tmp) ****
Total SCF time: 0 days 0 hours 0 min 4 sec 

-------------------------   --------------------
FINAL SINGLE POINT ENERGY      -283.895515778134
-------------------------   --------------------

------------------------------------------------------------------------------
                         ORCA SCF GRADIENT CALCULATION
------------------------------------------------------------------------------

Gradient of the Kohn-Sham DFT energy:
Kohn-Sham wavefunction type      ... RKS
Hartree-Fock exchange scaling    ...    0.000
Number of operators              ...    1
Number of atoms                  ...   10
Basis set dimensions             ...   95
Integral neglect threshold       ... 2.5e-11
Integral primitive cutoff        ... 2.5e-12

Nuclear repulsion gradient       ... done
One Electron Gradient            
  ECP gradient                   ... done
Pre-screening matrix             ... done
RI-J gradient                    ... done
Exchange-correlation gradient    ... done

------------------
CARTESIAN GRADIENT
------------------

   1   N   :    0.007052872   -0.017711058   -0.013764661
   2   C   :   -0.004373021    0.013195353    0.003137470
   3   H   :    0.002700219    0.007387366    0.005110338
   4   H   :   -0.004999619    0.002411974    0.006679926
   5   C   :    0.002394055    0.006641693   -0.004453931
   6   H   :    0.001732260   -0.001270273   -0.001529270
   7   H   :    0.001437728   -0.000102960    0.002058752
   8   O   :    0.005474534   -0.010542059    0.000804466
   9   O   :   -0.010661190   -0.001150735    0.002009668
  10   H   :   -0.000757838    0.001140699   -0.000052757

Difference to translation invariance:
           :   -0.0000000000   -0.0000000000   -0.0000000000

Norm of the cartesian gradient     ...    0.0355667698
RMS gradient                       ...    0.0064935740
MAX gradient                       ...    0.0177110583

-------
TIMINGS
-------

Total SCF gradient time            ...        2.345 sec

One electron gradient       ....       0.034 sec  (  1.4%)
Prescreening matrices       ....       0.041 sec  (  1.7%)
RI-J Coulomb gradient       ....       0.392 sec  ( 16.7%)
XC gradient                 ....       1.721 sec  ( 73.4%)
------------------------------------------------------------------------------
                         ORCA GEOMETRY RELAXATION STEP
------------------------------------------------------------------------------

Reading the OPT-File                    .... done
Getting information on internals        .... done
Copying old internal coords+grads       .... done
Making the new internal coordinates     .... (new redundants).... done
Validating the new internal coordinates .... (new redundants).... done
Calculating the B-matrix                .... done
Calculating the G,G- and P matrices     .... done
Transforming gradient to internals      .... done
Projecting the internal gradient        .... done
Number of atoms                         ....  10
Number of internal coordinates          ....  36
[...]
     15       0.000000   0.000000   0.000000   0.000000   0.000000   0.000000
     16       0.000000   0.000000   0.000000   0.000000   0.000000   0.000000
     17       0.000000   0.000000   0.000000   0.000000   0.000000   0.000000
     18       0.000000   0.000000   0.000000   0.000000   0.000000   0.000000
     19       0.000000   0.000000   0.000000   0.000000   0.000000   0.000000
     20       0.000000   0.000000   0.000000   0.000000   0.000000   0.000000
     21       0.000000   0.000000   0.000000   0.000000   0.000000   0.000000
     22       0.000000   0.000000   0.000000   0.000000   0.000000   0.000000
     23       0.000000   0.000000   0.000000   0.000000   0.000000   0.000000
     24       0.000000   0.000000   0.000000   0.000000   0.000000   0.000000
     25       0.000000   0.000000   0.000000   0.000000   0.000000   0.000000
     26       0.000000   0.000000   0.000000   0.000000   0.000000   0.000000
     27       0.000000   0.000000   0.000000   0.000000   0.000000   0.000000
     28       0.000000   0.000000   0.000000   0.000000   0.000000   0.000000
     29       0.000000   0.000000   0.000000   0.000000   0.000000   0.000000
                  6          7          8          9         10         11    
      0      -0.049725  -0.022936  -0.200582   0.036323   0.019395   0.009226
      1       0.029145  -0.031601  -0.212818  -0.155279  -0.133417  -0.068741
      2       0.189877   0.002884   0.011320  -0.022314   0.019262   0.015538
      3       0.014372   0.034267   0.081536   0.115014  -0.082910   0.126111
      4       0.002784  -0.002525  -0.005877  -0.052481  -0.138360   0.054312
      5      -0.206286  -0.032968   0.098596  -0.017146  -0.031160   0.015745
      6       0.157066  -0.355821   0.107043  -0.013931   0.048662   0.019046
      7      -0.024100  -0.434046  -0.064001  -0.271801  -0.075341  -0.160407
      8       0.451578  -0.419106   0.396901  -0.087666   0.052866   0.024767
      9       0.033491  -0.290524  -0.217677  -0.123205   0.075292  -0.153500
     10       0.001832  -0.024456  -0.023753  -0.050978  -0.155331   0.079014
     11       0.084688   0.630186  -0.654035  -0.033148  -0.048918  -0.155919
     12      -0.000965   0.029964   0.097568  -0.047220  -0.094325  -0.005272
     13      -0.008466   0.005032  -0.001998   0.075318   0.030782   0.123207
     14      -0.035628  -0.011620   0.033486   0.184446  -0.153734  -0.079230
     15       0.386292   0.014696   0.090528   0.515880  -0.313716  -0.000955
     16      -0.101949  -0.007030   0.108820   0.098483  -0.364449  -0.032826
     17      -0.394158  -0.024834   0.103849  -0.199627   0.072614   0.075519
     18      -0.234010   0.049173   0.075666  -0.185673   0.064687   0.199647
     19       0.071543   0.011854   0.124365  -0.288507  -0.111825   0.114767
     20      -0.497512  -0.022224   0.085295  -0.346147   0.141534   0.094654
     21       0.032213  -0.026179  -0.057885   0.046579   0.191494  -0.119077
     22      -0.064376  -0.024254  -0.040190   0.201357   0.111569   0.040412
     23       0.172956   0.011682  -0.048867  -0.030041   0.020371   0.049708
     24      -0.020528   0.035564   0.100406  -0.136344  -0.060201  -0.015952
     25       0.045396   0.072831   0.204380  -0.048693   0.125727  -0.087753
     26      -0.136200   0.006278  -0.046559  -0.006542   0.042637  -0.055225
     27       0.002907  -0.013118  -0.077348  -0.080863  -0.116446   0.510881
     28       0.016626   0.091922   0.299656  -0.024652   0.076385  -0.409191
     29       0.016096   0.042132  -0.148544  -0.436190   0.717318   0.589103
                 12         13         14         15         16         17    
      0       0.005271   0.056289   0.030362  -0.041233   0.037957  -0.108491
      1      -0.046797  -0.012644  -0.058689   0.020983  -0.123885   0.106352
      2       0.017743   0.086589   0.040773  -0.094470   0.001467  -0.026541
      3       0.025040   0.005508  -0.226442   0.028250  -0.062746   0.095562
      4       0.000710   0.050701  -0.115327  -0.023364   0.093457  -0.169057
      5      -0.047642   0.032833  -0.000214   0.222441  -0.003741   0.014958
      6       0.045439  -0.387902  -0.250917   0.077946  -0.042906  -0.190034
      7      -0.099897   0.132425   0.288252   0.107608   0.236639   0.338738
      8       0.065416  -0.526187  -0.341530   0.094067  -0.106859  -0.123313
      9      -0.043951  -0.202825   0.216526   0.067883   0.419220   0.048986
     10       0.006158   0.289357  -0.159810  -0.125881  -0.427864   0.005932
     11      -0.070313  -0.535683  -0.107934   0.283884   0.199914   0.001358
     12      -0.033874  -0.015589   0.029023  -0.068951   0.086267   0.085081
     13       0.093280  -0.029211   0.104643   0.029814   0.018934   0.023174
     14      -0.169570  -0.052985   0.061260  -0.186558  -0.018695   0.011726
     15      -0.222937   0.211996  -0.008578   0.642476   0.074288   0.115519
     16      -0.191805  -0.108004  -0.244611   0.111221   0.221561  -0.556839
     17       0.062700  -0.063190  -0.105728  -0.093785  -0.049820  -0.023948
     18       0.194140  -0.115999  -0.368163  -0.453641  -0.058423   0.101891
     19       0.091907   0.106230  -0.209203  -0.096485   0.619619   0.133178
     20       0.140390  -0.118123  -0.149504  -0.327091  -0.046488   0.002203
     21      -0.020396   0.025182  -0.087773   0.009010   0.006153   0.025037
     22       0.023546  -0.038335   0.088450  -0.014975  -0.033141  -0.024112
     23       0.093579  -0.004077   0.031205   0.037038  -0.009515  -0.014564
     24       0.029088  -0.027135   0.206896   0.041111  -0.091573  -0.104784
     25      -0.047992   0.003397  -0.001519  -0.010393   0.021601   0.059898
     26       0.095510   0.019918  -0.060458   0.017627   0.029876   0.039956
     27      -0.078648  -0.136310   0.450895  -0.072258   0.155905   0.544487
     28       0.111983   0.054152  -0.111562   0.037744  -0.084523  -0.228577
     29      -0.857752   0.028653  -0.124985   0.060463  -0.072964  -0.208462
                 18         19         20         21         22         23    
      0       0.044697   0.054347   0.046227   0.041046  -0.022057   0.033050
      1      -0.005975  -0.013369   0.000579   0.051555  -0.015336  -0.067104
      2       0.017564  -0.064094  -0.012509  -0.006777  -0.000438  -0.012398
      3      -0.083749  -0.076251  -0.006123  -0.119519  -0.046865  -0.009106
      4       0.040404   0.087552  -0.047914  -0.177931   0.076114  -0.005750
      5       0.015957   0.043116   0.002853   0.004473  -0.018188  -0.022183
      6       0.112993   0.242450   0.094629   0.105234  -0.035715   0.109471
      7      -0.266008  -0.315287  -0.117126  -0.314196   0.076056   0.694314
      8       0.101862   0.197975   0.056811   0.077398  -0.018438   0.110447
      9      -0.158918  -0.226063  -0.212555  -0.209226   0.098694  -0.553806
     10       0.144048   0.156970   0.170212   0.241817  -0.106329   0.260581
     11      -0.077278   0.034508   0.003831  -0.130477   0.041156   0.320204
     12       0.054413   0.041300  -0.229173   0.135090  -0.054287   0.020556
     13       0.023672  -0.001925  -0.094588   0.048246  -0.016236   0.010602
     14      -0.046983   0.040320   0.038928  -0.032412   0.006579  -0.001545
     15      -0.049861   0.055690   0.065576   0.392463   0.552678  -0.016154
     16       0.324138  -0.769272   0.252154   0.382375  -0.179844   0.045985
     17       0.010864  -0.055950  -0.012107  -0.198086  -0.283941  -0.024006
     18      -0.149168  -0.188467   0.043387   0.181716   0.437580   0.034310
     19      -0.581420   0.243032   0.620756   0.407252  -0.253257  -0.051998
     20      -0.013801  -0.081714   0.017309   0.298040   0.526948   0.030350
     21       0.032536  -0.003380   0.040905  -0.031358   0.009957  -0.003058
     22      -0.069953  -0.012490   0.002484   0.027864  -0.008436  -0.002445
     23      -0.018704  -0.010477  -0.010019   0.015387  -0.005352  -0.000071
     24      -0.067384  -0.010409   0.061426  -0.031834   0.014643  -0.005143
     25       0.063791   0.002964   0.056720  -0.025299   0.007368  -0.003152
     26       0.036890  -0.001433  -0.002124   0.003178  -0.001125   0.000435
     27       0.526530  -0.003483   0.546119  -0.223106   0.068118  -0.039349
     28      -0.203423   0.001208  -0.175727   0.070909  -0.020070   0.014604
     29      -0.184662  -0.009342  -0.197147   0.085542  -0.018490   0.012257
                 24         25         26         27         28         29    
      0      -0.002661  -0.001074   0.001596   0.013268   0.066837   0.000217
      1      -0.002643   0.002561   0.000053  -0.042474   0.040142   0.000142
      2      -0.001796  -0.000822  -0.001589  -0.036158  -0.020738   0.000064
      3      -0.000888  -0.038006  -0.059986  -0.000605   0.001476  -0.000363
      4      -0.076824   0.001141   0.002432   0.000899   0.000152  -0.000541
      5      -0.015544  -0.067283   0.060486  -0.003520  -0.000876  -0.000392
      6      -0.010306   0.005925  -0.011881  -0.565668  -0.563467  -0.000885
      7      -0.048874   0.005445  -0.003563  -0.012871   0.008006   0.000322
      8      -0.008121   0.005149   0.016691   0.404085   0.441317   0.000950
      9       0.012719  -0.007652  -0.000696   0.395138  -0.372185  -0.003502
     10      -0.017209  -0.003317   0.005258   0.584375  -0.565543  -0.004587
     11      -0.015708   0.008582  -0.002294   0.123893  -0.150424  -0.000969
     12      -0.235113   0.000208  -0.000366   0.000275   0.000114   0.002966
     13       0.667998   0.000031   0.001510   0.000286  -0.000633   0.002049
     14       0.210208  -0.001995   0.001281   0.000001   0.000082  -0.000256
     15      -0.013971   0.414397  -0.044193   0.000342  -0.001920   0.000999
     16       0.020274  -0.040471  -0.001562   0.005148  -0.000546  -0.000032
     17       0.004952   0.900510  -0.059720   0.005457  -0.001332   0.002098
     18       0.025307   0.053197   0.739442  -0.010137  -0.008911   0.000227
     19       0.200232  -0.009671  -0.042840  -0.001267   0.001011   0.000019
     20       0.027388  -0.081046  -0.661913   0.010912   0.008262   0.000869
     21       0.169229  -0.000253   0.000304  -0.000015  -0.000057  -0.000745
     22      -0.409930  -0.000028  -0.000366  -0.000103   0.000127   0.000522
     23      -0.132803   0.000300  -0.000384   0.000002   0.000009   0.000307
     24       0.033517   0.000156   0.000584   0.000103  -0.000116   0.026462
     25      -0.050175  -0.000228   0.000079   0.000312  -0.000121   0.054637
     26      -0.020783  -0.000028  -0.000052   0.000027  -0.000028   0.006016
     27      -0.382642   0.000984   0.000197  -0.001503   0.001539  -0.439055
     28       0.140864   0.002537  -0.000443  -0.002596   0.004904  -0.891149
     29       0.134622  -0.000580   0.000237  -0.000445   0.000111  -0.096463


-----------
IR SPECTRUM
-----------

 Mode    freq (cm**-1)   T**2         TX         TY         TZ
-------------------------------------------------------------------
   6:        69.61    3.456094  (  1.597433   0.022523  -0.950680)
   7:       227.83   34.166269  ( -4.137391  -3.697176   1.838249)
   8:       282.68   13.294987  (  1.660380   2.839858  -1.572683)
   9:       456.02    7.790583  ( -0.741865  -0.890797  -2.539035)
  10:       533.91   17.282140  ( -2.287879  -2.156570   2.719735)
  11:       591.25   46.036324  (  5.754941   1.768349   3.128885)
  12:       691.19   92.404228  (  0.072623   3.186776  -9.068815)
  13:       801.11  145.521226  ( -6.759214   4.642028  -8.847928)
  14:       823.96   18.634634  ( -1.521721   3.756582  -1.485628)
  15:       977.55   13.973533  ( -1.020522  -2.764114   2.300379)
  16:      1072.32   51.657956  (  6.592028   2.412582  -1.543557)
  17:      1119.91  114.074646  ( 10.558601  -0.626954  -1.482401)
  18:      1185.20   62.712572  (  7.490088   1.316241  -2.208771)
  19:      1244.01    9.355758  (  0.362640   3.037124  -0.011399)
  20:      1313.69   37.025087  ( -5.240826  -3.010406   0.704474)
  21:      1375.15   48.000052  (  6.890361  -0.433064  -0.579169)
  22:      1420.21   11.420868  ( -1.904898   2.690179   0.745096)
  23:      1575.24   34.309090  ( -0.716718   4.891404   3.141587)
  24:      1815.74  256.221126  ( -7.883413  12.821790   5.447443)
  25:      2831.48   70.245714  ( -4.542846   4.188102  -5.662867)
  26:      3029.37    8.345584  ( -1.930022   0.971361   1.917566)
  27:      3420.07    1.383047  ( -0.628095  -0.534143   0.838591)
  28:      3504.44    3.018137  ( -1.616108  -0.344916   0.536063)
  29:      3621.96   51.813839  ( -4.386016  -5.703554  -0.214904)

The first frequency considered to be a vibration is 6
The total number of vibrations considered is 24


--------------------------
THERMOCHEMISTRY AT 298.15K
--------------------------

Temperature         ... 298.15 K
Pressure            ... 1.00 atm
Total Mass          ... 75.07 AMU

Throughout the following assumptions are being made:
  (1) The electronic state is orbitally nondegenerate
  (2) There are no thermally accessible electronically excited states
  (3) Hindered rotations indicated by low frequency modes are not
      treated as such but are treated as vibrations and this may
      cause some error
  (4) All equations used are the standard statistical mechanics
      equations for an ideal gas
  (5) All vibrations are strictly harmonic

freq.      69.61  E(vib)   ...       0.50 
freq.     227.83  E(vib)   ...       0.33 
freq.     282.68  E(vib)   ...       0.28 
freq.     456.02  E(vib)   ...       0.16 
freq.     533.91  E(vib)   ...       0.13 
freq.     591.25  E(vib)   ...       0.10 
freq.     691.19  E(vib)   ...       0.07 
freq.     801.11  E(vib)   ...       0.05 
freq.     823.96  E(vib)   ...       0.05 
freq.     977.55  E(vib)   ...       0.03 
freq.    1072.32  E(vib)   ...       0.02 
freq.    1119.91  E(vib)   ...       0.01 
freq.    1185.20  E(vib)   ...       0.01 
freq.    1244.01  E(vib)   ...       0.01 
freq.    1313.69  E(vib)   ...       0.01 
freq.    1375.15  E(vib)   ...       0.01 
freq.    1420.21  E(vib)   ...       0.00 
freq.    1575.24  E(vib)   ...       0.00 
freq.    1815.74  E(vib)   ...       0.00 
freq.    2831.48  E(vib)   ...       0.00 
freq.    3029.37  E(vib)   ...       0.00 
freq.    3420.07  E(vib)   ...       0.00 
freq.    3504.44  E(vib)   ...       0.00 
freq.    3621.96  E(vib)   ...       0.00 

------------
INNER ENERGY
------------

The inner energy is: U= E(el) + E(ZPE) + E(vib) + E(rot) + E(trans)
    E(el)   - is the total energy from the electronic structure calculation
              = E(kin-el) + E(nuc-el) + E(el-el) + E(nuc-nuc)
    E(ZPE)  - the the zero temperature vibrational energy from the frequency calculation
    E(vib)  - the the finite temperature correction to E(ZPE) due to population
              of excited vibrational states
    E(rot)  - is the rotational thermal energy
    E(trans)- is the translational thermal energy

Summary of contributions to the inner energy U:
Electronic energy                ...   -283.89871440 Eh
Zero point energy                ...      0.07742104 Eh      48.58 kcal/mol
Thermal vibrational correction   ...      0.00279856 Eh       1.76 kcal/mol
Thermal rotational correction    ...      0.00141627 Eh       0.89 kcal/mol
Thermal translational correction ...      0.00141627 Eh       0.89 kcal/mol
-----------------------------------------------------------------------
Total thermal energy                   -283.81566225 Eh


Summary of corrections to the electronic energy:
(perhaps to be used in another calculation)
Total thermal correction                  0.00563111 Eh       3.53 kcal/mol
Non-thermal (ZPE) correction              0.07742104 Eh      48.58 kcal/mol
-----------------------------------------------------------------------
Total correction                          0.08305215 Eh      52.12 kcal/mol


--------
ENTHALPY
--------

The enthalpy is H = U + kB*T
                kB is Boltzmann's constant
Total free energy                 ...   -283.81566225 Eh 
Thermal Enthalpy correction       ...      0.00094421 Eh       0.59 kcal/mol
-----------------------------------------------------------------------
Total Enthalpy                    ...   -283.81471804 Eh


Vibrational entropy computed according to the QRRHO of S. Grimme
Chem.Eur.J. 2012 18 9955

check  

-------
ENTROPY
-------

The entropy contributions are T*S = T*(S(el)+S(vib)+S(rot)+S(trans)
     S(el)   - electronic entropy
     S(vib)  - vibrational entropy
     S(rot)  - rotational entropy
     S(trans)- translational entropy
The entropies will be listed as mutliplied by the temperature to get
units of energy

Electronic entropy                ...      0.00000000 Eh      0.00 kcal/mol
Vibrational entropy               ...      0.00462648 Eh      2.90 kcal/mol
Rotational entropy                ...      0.01103976 Eh      6.93 kcal/mol
Translational entropy             ...      0.01846507 Eh     11.59 kcal/mol
-----------------------------------------------------------------------
Final entropy term                ...      0.03413131 Eh     21.42 kcal/mol


CAUTION: The rotational entropy is not quite correctly treated here
         because it includes a symmetry number that is not yet correctly
         implemented in ORCA!
For a nonlinear molecule the correct rotational entropy is:
    S(rot) = R*(ln(qrot/sn)+1.5)
    R    = 8.31441 J/mol/K = 1.987191683e-3 kcal/mol/K
    qrot = 80099.8123563
    sn is the rotational symmetry number. We have assumed 3 here
       if it is different for your molecule then you should correct
       the printed rotational entropy by manually evaluating the equation
       as given above

For convenience we print out the resulting values for sn=1 - 12:
 sn= 1  qrot/sn=   80099.8124 T*S(rot)=     7.58 kcal/mol T*S(tot)=    22.07 kcal/mol
 sn= 2  qrot/sn=   40049.9062 T*S(rot)=     7.17 kcal/mol T*S(tot)=    21.66 kcal/mol
 sn= 3  qrot/sn=   26699.9375 T*S(rot)=     6.93 kcal/mol T*S(tot)=    21.42 kcal/mol
 sn= 4  qrot/sn=   20024.9531 T*S(rot)=     6.76 kcal/mol T*S(tot)=    21.25 kcal/mol
 sn= 5  qrot/sn=   16019.9625 T*S(rot)=     6.62 kcal/mol T*S(tot)=    21.12 kcal/mol
 sn= 6  qrot/sn=   13349.9687 T*S(rot)=     6.52 kcal/mol T*S(tot)=    21.01 kcal/mol
 sn= 7  qrot/sn=   11442.8303 T*S(rot)=     6.43 kcal/mol T*S(tot)=    20.92 kcal/mol
 sn= 8  qrot/sn=   10012.4765 T*S(rot)=     6.35 kcal/mol T*S(tot)=    20.84 kcal/mol
 sn= 9  qrot/sn=    8899.9792 T*S(rot)=     6.28 kcal/mol T*S(tot)=    20.77 kcal/mol
 sn=10  qrot/sn=    8009.9812 T*S(rot)=     6.21 kcal/mol T*S(tot)=    20.70 kcal/mol
 sn=11  qrot/sn=    7281.8011 T*S(rot)=     6.16 kcal/mol T*S(tot)=    20.65 kcal/mol
 sn=12  qrot/sn=    6674.9844 T*S(rot)=     6.11 kcal/mol T*S(tot)=    20.60 kcal/mol


-------------------
GIBBS FREE ENTHALPY
-------------------

The Gibbs free enthalpy is G = H - T*S

Total enthalpy                    ...   -283.81471804 Eh 
Total entropy correction          ...     -0.03413131 Eh    -21.42 kcal/mol
-----------------------------------------------------------------------
Final Gibbs free enthalpy         ...   -283.84884935 Eh

For completeness - the Gibbs free enthalpy minus the electronic energy
G-E(el)                           ...      0.04986505 Eh     31.29 kcal/mol


Timings for individual modules:

Sum of individual times         ...      157.309 sec (=   2.622 min)
GTO integral calculation        ...        2.409 sec (=   0.040 min)   1.5 %
SCF iterations                  ...       59.584 sec (=   0.993 min)  37.9 %
SCF Gradient evaluation         ...       30.397 sec (=   0.507 min)  19.3 %
Geometry relaxation             ...        0.616 sec (=   0.010 min)   0.4 %
Analytical frequency calculation...       64.302 sec (=   1.072 min)  40.9 %
                             ****ORCA TERMINATED NORMALLY****
TOTAL RUN TIME: 0 days 0 hours 2 minutes 37 seconds 910 msec
