
                                 *****************
                                 * O   R   C   A *
                                 *****************

           --- An Ab Initio, DFT and Semiempirical electronic structure package ---

                  #######################################################
                  #                        -***-                        #
                  #  Department of molecular theory and spectroscopy    #
                  #              Directorship: Frank Neese              #
                  # Max Planck Institute for Chemical Energy Conversion #
                  #                  D-45470 Muelheim/Ruhr              #
                  #                       Germany                       #
                  #                                                     #
                  #                  All rights reserved                #
                  #                        -***-                        #
                  #######################################################


                         Program Version 4.0.0 -  RELEASE  -


 With contributions from (in alphabetic order):
   Daniel Aravena         : Magnetic Properties
   Michael Atanasov       : Ab Initio Ligand Field Theory
   Ute Becker             : Parallelization
   Martin Brehm           : Molecular dynamics
   Dmytro Bykov           : SCF Hessian
   Vijay G. Chilkuri      : MRCI spin determinant printing
   Dipayan Datta          : RHF DLPNO-CCSD density
   Achintya Kumar Dutta   : EOM-CC, STEOM-CC
   Dmitry Ganyushin       : Spin-Orbit,Spin-Spin,Magnetic field MRCI
   Yang Guo               : DLPNO-NEVPT2, CIM, IAO-localization
   Andreas Hansen         : Spin unrestricted coupled pair/coupled cluster methods
   Lee Huntington         : MR-EOM, pCC
   Robert Izsak           : Overlap fitted RIJCOSX, COSX-SCS-MP3, EOM
   Christian Kollmar      : KDIIS, OOCD, Brueckner-CCSD(T), CCSD density
   Simone Kossmann        : Meta GGA functionals, TD-DFT gradient, OOMP2, MP2 Hessian
   Martin Krupicka        : AUTO-CI
   Dagmar Lenk            : GEPOL surface
   Dimitrios Liakos       : Extrapolation schemes; parallel MDCI
   Dimitrios Manganas     : ROCIS; embedding schemes
   Dimitrios Pantazis     : SARC Basis sets
   Taras Petrenko         : DFT Hessian,TD-DFT gradient, ASA, ECA, R-Raman, ABS, FL, XAS/XES, NRVS
   Peter Pinski           : DLPNO-MP2
   Christoph Reimann      : Effective Core Potentials
   Marius Retegan         : Local ZFS, SOC
   Christoph Riplinger    : Optimizer, TS searches, QM/MM, DLPNO-CCSD(T), (RO)-DLPNO pert. Triples
   Tobias Risthaus        : Range-separated hybrids, TD-DFT gradient, RPA, STAB
   Michael Roemelt        : Restricted open shell CIS
   Masaaki Saitow         : Open-shell DLPNO
   Barbara Sandhoefer     : DKH picture change effects
   Kantharuban Sivalingam : CASSCF convergence, NEVPT2, FIC-MRCI
   Georgi Stoychev        : AutoAux
   Boris Wezisla          : Elementary symmetry handling
   Frank Wennmohs         : Technical directorship


 We gratefully acknowledge several colleagues who have allowed us to
 interface, adapt or use parts of their codes:
   Stefan Grimme, W. Hujo, H. Kruse,             : VdW corrections, initial TS optimization,
                  C. Bannwarth                     DFT functionals, gCP, sTDA/sTD-DF
   Ed Valeev                                     : LibInt (2-el integral package), F12 methods
   Garnet Chan, S. Sharma, J. Yang, R. Olivares  : DMRG
   Ulf Ekstrom                                   : XCFun DFT Library
   Mihaly Kallay                                 : mrcc  (arbitrary order and MRCC methods)
   Jiri Pittner, Ondrej Demel                    : Mk-CCSD
   Frank Weinhold                                : gennbo (NPA and NBO analysis)
   Christopher J. Cramer and Donald G. Truhlar   : smd solvation model


 Your calculation uses the libint2 library for the computation of 2-el integrals
 For citations please refer to: http://libint.valeyev.net

 This ORCA versions uses:
   CBLAS   interface :  Fast vector & matrix operations
   LAPACKE interface :  Fast linear algebra routines
   SCALAPACK package :  Parallel linear algebra routines


Your calculation utilizes the basis: def2-SVP
   F. Weigend and R. Ahlrichs, Phys. Chem. Chem. Phys. 7, 3297 (2005).

Your calculation utilizes the auxiliary basis: def2/J
   F. Weigend, Phys. Chem. Chem. Phys. 8, 1057 (2006).

================================================================================
                                        WARNINGS
                       Please study these warnings very carefully!
================================================================================

Warning: TCutStore was < 0. Adjusted to Thresh (uncritical)

WARNING: Geometry Optimization
  ===> : Switching off AutoStart
         For restart on a previous wavefunction, please use MOREAD

INFO   : the flag for use of LIBINT has been found!

================================================================================
                                       INPUT FILE
================================================================================
NAME = 6-ttc_opt.in
|  1> ! rks pbe def2-svp opt anfreq
|  2> 
|  3> * xyz 0 1
|  4> N                     0.21809  -1.84603   0.
|  5> C                    -0.77997  -0.79559   0.
|  6> H                     0.51748  -1.93228   0.92982
|  7> H                     0.51748  -1.93228  -0.92982
|  8> C                    -0.11126   0.57149   0.
|  9> H                    -1.39982  -0.87166  -0.91821
| 10> H                    -1.39982  -0.87166   0.91821
| 11> O                     1.14414   0.65779   0.
| 12> O                    -0.90957   1.75786   0.
| 13> H                    -1.83916   1.5185    0.
| 14> *
| 15> 
| 16>                          ****END OF INPUT****
================================================================================

                       *****************************
                       * Geometry Optimization Run *
                       *****************************

Geometry optimization settings:
Update method            Update   .... BFGS
Choice of coordinates    CoordSys .... Redundant Internals
Initial Hessian          InHess   .... Almoef's Model

Convergence Tolerances:
Energy Change            TolE     ....  5.0000e-06 Eh
Max. Gradient            TolMAXG  ....  3.0000e-04 Eh/bohr
RMS Gradient             TolRMSG  ....  1.0000e-04 Eh/bohr
Max. Displacement        TolMAXD  ....  4.0000e-03 bohr
RMS Displacement         TolRMSD  ....  2.0000e-03 bohr

------------------------------------------------------------------------------
                        ORCA OPTIMIZATION COORDINATE SETUP
------------------------------------------------------------------------------

The optimization will be done in new redundant internal coordinates
Making redundant internal coordinates   ...  (new redundants) done
Evaluating the initial hessian          ...  (Almloef) done
Evaluating the coordinates              ...  done
Calculating the B-matrix                .... done
Calculating the G-matrix                .... done
Diagonalizing the G-matrix              .... done
The first mode is                       ....   12
The number of degrees of freedom        ....   24

    -----------------------------------------------------------------
                    Redundant Internal Coordinates


    -----------------------------------------------------------------
         Definition                    Initial Value    Approx d2E/dq
    -----------------------------------------------------------------
      1. B(C   1,N   0)                  1.4490         0.450582   
      2. B(H   2,N   0)                  0.9806         0.482003   
      3. B(H   3,N   0)                  0.9806         0.482003   
      4. B(C   4,C   1)                  1.5219         0.384904   
      5. B(H   5,C   1)                  1.1105         0.334032   
      6. B(H   6,C   1)                  1.1105         0.334032   
      7. B(O   7,C   4)                  1.2584         0.907600   
      8. B(O   8,C   4)                  1.4300         0.483202   
      9. B(H   9,O   8)                  0.9599         0.520125   
     10. A(C   1,N   0,H   3)          105.9057         0.346076   
     11. A(H   2,N   0,H   3)          142.9498         0.313981   
     12. A(C   1,N   0,H   2)          105.9057         0.346076   
     13. A(C   4,C   1,H   5)          107.8669         0.321920   
     14. A(N   0,C   1,H   5)          109.5618         0.328389   
     15. A(N   0,C   1,H   6)          109.5618         0.328389   
     16. A(H   5,C   1,H   6)          111.5586         0.284089   
     17. A(C   4,C   1,H   6)          107.8669         0.321920   
     18. A(N   0,C   1,C   4)          110.3991         0.374811   
     19. A(O   7,C   4,O   8)          120.0042         0.438688   
     20. A(C   1,C   4,O   8)          119.9977         0.379368   
     21. A(C   1,C   4,O   7)          119.9982         0.423898   
     22. A(C   4,O   8,H   9)          109.4972         0.354714   
     23. D(H   6,C   1,N   0,H   2)    -38.2764         0.017320   
     24. D(H   5,C   1,N   0,H   3)     38.2764         0.017320   
     25. D(H   6,C   1,N   0,H   3)    160.9675         0.017320   
     26. D(H   5,C   1,N   0,H   2)   -160.9675         0.017320   
     27. D(C   4,C   1,N   0,H   2)     80.3780         0.017320   
     28. D(C   4,C   1,N   0,H   3)    -80.3780         0.017320   
     29. D(O   7,C   4,C   1,N   0)      0.0000         0.011038   
     30. D(O   8,C   4,C   1,H   6)    -60.3168         0.011038   
     31. D(O   8,C   4,C   1,H   5)     60.3168         0.011038   
     32. D(O   8,C   4,C   1,N   0)    180.0000         0.011038   
     33. D(O   7,C   4,C   1,H   6)    119.6832         0.011038   
     34. D(O   7,C   4,C   1,H   5)   -119.6832         0.011038   
     35. D(H   9,O   8,C   4,O   7)    180.0000         0.016754   
     36. D(H   9,O   8,C   4,C   1)      0.0000         0.016754   
    -----------------------------------------------------------------

Number of atoms                         .... 10
Number of degrees of freedom            .... 36

         *************************************************************
         *                GEOMETRY OPTIMIZATION CYCLE   1            *
         *************************************************************
---------------------------------
CARTESIAN COORDINATES (ANGSTROEM)
---------------------------------
  N      0.218090   -1.846030    0.000000
  C     -0.779970   -0.795590    0.000000
  H      0.517480   -1.932280    0.929820
  H      0.517480   -1.932280   -0.929820
  C     -0.111260    0.571490    0.000000
  H     -1.399820   -0.871660   -0.918210
  H     -1.399820   -0.871660    0.918210
  O      1.144140    0.657790    0.000000
  O     -0.909570    1.757860    0.000000
  H     -1.839160    1.518500    0.000000

----------------------------
CARTESIAN COORDINATES (A.U.)
----------------------------
  NO LB      ZA    FRAG     MASS         X           Y           Z
   0 N     7.0000    0    14.007    0.412130   -3.488491    0.000000
   1 C     6.0000    0    12.011   -1.473930   -1.503447    0.000000
   2 H     1.0000    0     1.008    0.977895   -3.651480    1.757105
   3 H     1.0000    0     1.008    0.977895   -3.651480   -1.757105
   4 C     6.0000    0    12.011   -0.210251    1.079960    0.000000
   5 H     1.0000    0     1.008   -2.645276   -1.647199   -1.735165
   6 H     1.0000    0     1.008   -2.645276   -1.647199    1.735165
   7 O     8.0000    0    15.999    2.162111    1.243043    0.000000
   8 O     8.0000    0    15.999   -1.718838    3.321874    0.000000
   9 H     1.0000    0     1.008   -3.475509    2.869549    0.000000

--------------------------------
INTERNAL COORDINATES (ANGSTROEM)
--------------------------------
 N      0   0   0     0.000000000000     0.00000000     0.00000000
 C      1   0   0     1.448981696641     0.00000000     0.00000000
 H      1   2   0     0.980631769320   105.90571012     0.00000000
 H      1   2   3     0.980631769320   105.90571012   199.24391630
 C      2   1   3     1.521867533822   110.39906590    80.37804185
 H      2   1   3     1.110454984004   109.56179850   199.03252681
 H      2   1   3     1.110454984004   109.56179850   321.72355689
 O      5   2   1     1.258362765660   119.99816276     0.00000000
 O      5   2   1     1.429955465390   119.99767191   180.00000000
 H      9   5   2     0.959911859339   109.49724380     0.00000000

---------------------------
INTERNAL COORDINATES (A.U.)
---------------------------
 N      0   0   0     0.000000000000     0.00000000     0.00000000
 C      1   0   0     2.738178579716     0.00000000     0.00000000
 H      1   2   0     1.853125482238   105.90571012     0.00000000
 H      1   2   3     1.853125482238   105.90571012   199.24391630
 C      2   1   3     2.875912851029   110.39906590    80.37804185
 H      2   1   3     2.098455803816   109.56179850   199.03252681
 H      2   1   3     2.098455803816   109.56179850   321.72355689
 O      5   2   1     2.377961004222   119.99816276     0.00000000
 O      5   2   1     2.702224213292   119.99767191   180.00000000
 H      9   5   2     1.813970526854   109.49724380     0.00000000

---------------------
BASIS SET INFORMATION
---------------------
There are 4 groups of distinct atoms

 Group   1 Type N   : 7s4p1d contracted to 3s2p1d pattern {511/31/1}
 Group   2 Type C   : 7s4p1d contracted to 3s2p1d pattern {511/31/1}
 Group   3 Type H   : 4s1p contracted to 2s1p pattern {31/1}
 Group   4 Type O   : 7s4p1d contracted to 3s2p1d pattern {511/31/1}

Atom   0N    basis set group =>   1
Atom   1C    basis set group =>   2
Atom   2H    basis set group =>   3
Atom   3H    basis set group =>   3
Atom   4C    basis set group =>   2
Atom   5H    basis set group =>   3
Atom   6H    basis set group =>   3
Atom   7O    basis set group =>   4
Atom   8O    basis set group =>   4
Atom   9H    basis set group =>   3
-------------------------------
AUXILIARY BASIS SET INFORMATION
-------------------------------
There are 4 groups of distinct atoms

 Group   1 Type N   : 12s5p4d2f1g contracted to 6s4p3d1f1g pattern {711111/2111/211/2/1}
 Group   2 Type C   : 12s5p4d2f1g contracted to 6s4p3d1f1g pattern {711111/2111/211/2/1}
 Group   3 Type H   : 5s2p1d contracted to 3s1p1d pattern {311/2/1}
 Group   4 Type O   : 12s5p4d2f1g contracted to 6s4p3d1f1g pattern {711111/2111/211/2/1}

Atom   0N    basis set group =>   1
Atom   1C    basis set group =>   2
Atom   2H    basis set group =>   3
Atom   3H    basis set group =>   3
Atom   4C    basis set group =>   2
Atom   5H    basis set group =>   3
Atom   6H    basis set group =>   3
Atom   7O    basis set group =>   4
Atom   8O    basis set group =>   4
Atom   9H    basis set group =>   3
-------------------------
ECP PARAMETER INFORMATION
-------------------------



------------------------------------------------------------------------------
                           ORCA GTO INTEGRAL CALCULATION
                           -- RI-GTO INTEGRALS CHOSEN --
------------------------------------------------------------------------------

                         BASIS SET STATISTICS AND STARTUP INFO

Gaussian basis set:
 # of primitive gaussian shells          ...   85
 # of primitive gaussian functions       ...  155
 # of contracted shells                  ...   45
 # of contracted basis functions         ...   95
 Highest angular momentum                ...    2
 Maximum contraction depth               ...    5
Auxiliary gaussian basis set:
 # of primitive gaussian shells          ...  160
 # of primitive gaussian functions       ...  430
 # of contracted shells                  ...  100
 # of contracted aux-basis functions     ...  300
 Highest angular momentum                ...    4
 Maximum contraction depth               ...    7
Ratio of auxiliary to basis functions    ...  3.16
Integral package used                  ... LIBINT
 One Electron integrals                  
   ECP integrals                         ... done
 Ordering auxiliary basis shells         ... done
 Integral threshhold             Thresh  ...  2.500e-11
 Primitive cut-off               TCut    ...  2.500e-12
 Pre-screening matrix                    ... done
 Shell pair data                         ... 
 Ordering of the shell pairs             ... done (   0.000 sec) 1020 of 1035 pairs
 Determination of significant pairs      ... done (   0.000 sec)
 Creation of shell pair data             ... done (   0.000 sec)
 Storage of shell pair data              ... done (   0.000 sec)
 Shell pair data done in (   0.001 sec)
 Computing two index integrals           ... done
 Cholesky decomposition of the V-matrix  ... done


Timings:
 Total evaluation time                   ...   0.132 sec (  0.002 min)
 One electron matrix time                ...   0.008 sec (  0.000 min) =  6.3%
 Schwartz matrix evaluation time         ...   0.091 sec (  0.002 min) = 69.2%
 Two index repulsion integral time       ...   0.003 sec (  0.000 min) =  2.0%
 Cholesky decomposition of V             ...   0.001 sec (  0.000 min) =  1.0%
 Three index repulsion integral time     ...   0.000 sec (  0.000 min) =  0.0%

-------------------------------------------------------------------------------
                                 ORCA SCF
-------------------------------------------------------------------------------

------------
SCF SETTINGS
------------
Hamiltonian:
 Density Functional     Method          .... DFT(GTOs)
 Exchange Functional    Exchange        .... PBE
   PBE kappa parameter   XKappa         ....  0.804000
   PBE mue parameter    XMuePBE         ....  0.219520
 Correlation Functional Correlation     .... PBE
   PBE beta parameter  CBetaPBE         ....  0.066725
 LDA part of GGA corr.  LDAOpt          .... PW91-LDA
 Gradients option       PostSCFGGA      .... off
   NL short-range parameter             ....  6.400000
 RI-approximation to the Coulomb term is turned on
   Number of auxiliary basis functions  .... 300


General Settings:
 Integral files         IntName         .... 6-ttc_opt
 Hartree-Fock type      HFTyp           .... RHF
 Total Charge           Charge          ....    0
 Multiplicity           Mult            ....    1
 Number of Electrons    NEL             ....   40
 Basis Dimension        Dim             ....   95
 Nuclear Repulsion      ENuc            ....    176.6423368125 Eh

Convergence Acceleration:
 DIIS                   CNVDIIS         .... on
   Start iteration      DIISMaxIt       ....    12
   Startup error        DIISStart       ....  0.200000
   # of expansion vecs  DIISMaxEq       ....     5
   Bias factor          DIISBfac        ....   1.050
   Max. coefficient     DIISMaxC        ....  10.000
 Newton-Raphson         CNVNR           .... off
 SOSCF                  CNVSOSCF        .... on
   Start iteration      SOSCFMaxIt      ....   150
   Startup grad/error   SOSCFStart      ....  0.003300
 Level Shifting         CNVShift        .... on
   Level shift para.    LevelShift      ....    0.2500
   Turn off err/grad.   ShiftErr        ....    0.0010
 Zerner damping         CNVZerner       .... off
 Static damping         CNVDamp         .... on
   Fraction old density DampFac         ....    0.7000
   Max. Damping (<1)    DampMax         ....    0.9800
   Min. Damping (>=0)   DampMin         ....    0.0000
   Turn off err/grad.   DampErr         ....    0.1000
 Fernandez-Rico         CNVRico         .... off

SCF Procedure:
 Maximum # iterations   MaxIter         ....   125
 SCF integral mode      SCFMode         .... Direct
   Integral package                     .... LIBINT
 Reset frequeny         DirectResetFreq ....    20
 Integral Threshold     Thresh          ....  2.500e-11 Eh
 Primitive CutOff       TCut            ....  2.500e-12 Eh

Convergence Tolerance:
 Convergence Check Mode ConvCheckMode   .... Total+1el-Energy
 Convergence forced     ConvForced      .... 0
 Energy Change          TolE            ....  1.000e-08 Eh
 1-El. energy change                    ....  1.000e-05 Eh
 Orbital Gradient       TolG            ....  1.000e-05
 Orbital Rotation angle TolX            ....  1.000e-05
 DIIS Error             TolErr          ....  5.000e-07


Diagonalization of the overlap matrix:
Smallest eigenvalue                        ... 2.456e-03
Time for diagonalization                   ...    0.002 sec
Threshold for overlap eigenvalues          ... 1.000e-08
Number of eigenvalues below threshold      ... 0
Time for construction of square roots      ...    0.000 sec
Total time needed                          ...    0.002 sec

-------------------
DFT GRID GENERATION
-------------------

General Integration Accuracy     IntAcc      ...  4.340
Radial Grid Type                 RadialGrid  ... Gauss-Chebyshev
Angular Grid (max. acc.)         AngularGrid ... Lebedev-110
Angular grid pruning method      GridPruning ... 3 (G Style)
Weight generation scheme         WeightScheme... Becke
Basis function cutoff            BFCut       ...    1.0000e-11
Integration weight cutoff        WCut        ...    1.0000e-14
Grids for H and He will be reduced by one unit

# of grid points (after initial pruning)     ...  12416 (   0.0 sec)
# of grid points (after weights+screening)   ...  11836 (   0.0 sec)
nearest neighbour list constructed           ...    0.0 sec
Grid point re-assignment to atoms done       ...    0.0 sec
Grid point division into batches done        ...    0.0 sec
Reduced shell lists constructed in    0.1 sec

Total number of grid points                  ...    11836
Total number of batches                      ...      191
Average number of points per batch           ...       61
Average number of grid points per atom       ...     1184
Average number of shells per batch           ...    35.98 (79.95%)
Average number of basis functions per batch  ...    75.64 (79.62%)
Average number of large shells per batch     ...    30.06 (83.56%)
Average number of large basis fcns per batch ...    61.98 (81.94%)
Maximum spatial batch extension              ...  20.90, 19.75, 25.60 au
Average spatial batch extension              ...   4.11,  4.11,  4.32 au

Time for grid setup =    0.097 sec

------------------------------
INITIAL GUESS: MODEL POTENTIAL
------------------------------
Loading Hartree-Fock densities                     ... done
Calculating cut-offs                               ... done
Setting up the integral package                    ... done
Initializing the effective Hamiltonian             ... done
Starting the Coulomb interaction                   ... done (   0.0 sec)
Reading the grid                                   ... done
Mapping shells                                     ... done
Starting the XC term evaluation                    ... done (   0.1 sec)
  promolecular density results
     # of electrons  =     39.994915009
     EX              =    -34.504474571
     EC              =     -1.323729855
     EX+EC           =    -35.828204426
Transforming the Hamiltonian                       ... done (   0.0 sec)
Diagonalizing the Hamiltonian                      ... done (   0.0 sec)
Back transforming the eigenvectors                 ... done (   0.0 sec)
Now organizing SCF variables                       ... done
                      ------------------
                      INITIAL GUESS DONE (   0.3 sec)
                      ------------------
--------------
SCF ITERATIONS
--------------
ITER       Energy         Delta-E        Max-DP      RMS-DP      [F,P]     Damp
               ***  Starting incremental Fock matrix formation  ***
  0   -283.6206392295   0.000000000000 0.17783261  0.00600182  0.2910112 0.7000
  1   -283.7462594471  -0.125620217536 0.09478824  0.00320471  0.1018297 0.7000
                               ***Turning on DIIS***
  2   -283.7756766254  -0.029417178317 0.05475847  0.00344233  0.0448706 0.0000
  3   -283.8484351253  -0.072758499863 0.06966484  0.00228353  0.0568493 0.0000
  4   -283.8556500656  -0.007214940333 0.02039051  0.00072226  0.0485793 0.0000
  5   -283.8587359541  -0.003085888547 0.00637562  0.00025595  0.0131271 0.0000
  6   -283.8589590421  -0.000223087935 0.00279735  0.00010013  0.0048203 0.0000
                      *** Initiating the SOSCF procedure ***
                           *** Shutting down DIIS ***
                      *** Re-Reading the Fockian *** 
                      *** Removing any level shift *** 
ITER      Energy       Delta-E        Grad      Rot      Max-DP    RMS-DP
  7   -283.85898311  -0.0000240643  0.000183  0.000183  0.001399  0.000064
               *** Restarting incremental Fock matrix formation ***
  8   -283.85898505  -0.0000019390  0.000198  0.000887  0.000865  0.000038
  9   -283.85898260   0.0000024448  0.000651  0.000782  0.000872  0.000029
 10   -283.85898540  -0.0000027954  0.000137  0.000285  0.000573  0.000024
 11   -283.85898488   0.0000005171  0.000177  0.000152  0.000334  0.000016
 12   -283.85898560  -0.0000007189  0.000014  0.000017  0.000068  0.000003
 13   -283.85898559   0.0000000036  0.000019  0.000011  0.000043  0.000002
                  ***Gradient check signals convergence***
              ***Rediagonalizing the Fockian in SOSCF/NRSCF***

               *****************************************************
               *                     SUCCESS                       *
               *           SCF CONVERGED AFTER  14 CYCLES          *
               *****************************************************

Setting up the final grid:

General Integration Accuracy     IntAcc      ...  4.670
Radial Grid Type                 RadialGrid  ... Gauss-Chebyshev
Angular Grid (max. acc.)         AngularGrid ... Lebedev-302
Angular grid pruning method      GridPruning ... 3 (G Style)
Weight generation scheme         WeightScheme... Becke
Basis function cutoff            BFCut       ...    1.0000e-11
Integration weight cutoff        WCut        ...    1.0000e-14
Grids for H and He will be reduced by one unit

# of grid points (after initial pruning)     ...  48030 (   0.0 sec)
# of grid points (after weights+screening)   ...  45293 (   0.1 sec)
nearest neighbour list constructed           ...    0.0 sec
Grid point re-assignment to atoms done       ...    0.0 sec
Grid point division into batches done        ...    0.1 sec
Reduced shell lists constructed in    0.5 sec

Total number of grid points                  ...    45293
Total number of batches                      ...      712
Average number of points per batch           ...       63
Average number of grid points per atom       ...     4529
Average number of shells per batch           ...    33.09 (73.53%)
Average number of basis functions per batch  ...    69.39 (73.04%)
Average number of large shells per batch     ...    27.11 (81.93%)
Average number of large basis fcns per batch ...    55.21 (79.57%)
Maximum spatial batch extension              ...  21.64, 22.22, 20.26 au
Average spatial batch extension              ...   2.72,  2.74,  2.81 au

Final grid set up in    0.5 sec
Final integration                            ... done (   0.4 sec)
Change in XC energy                          ...    -0.000830465
Integrated number of electrons               ...    40.000021603
Previous integrated no of electrons          ...    39.995930932

----------------
TOTAL SCF ENERGY
----------------

Total Energy       :         -283.85981607 Eh           -7724.21829 eV

Components:
Nuclear Repulsion  :          176.64233681 Eh            4806.68235 eV
Electronic Energy  :         -460.50215288 Eh          -12530.90064 eV
One Electron Energy:         -737.48639779 Eh          -20068.02512 eV
Two Electron Energy:          276.98424491 Eh            7537.12448 eV

Virial components:
Potential Energy   :         -565.29186631 Eh          -15382.37371 eV
Kinetic Energy     :          281.43205025 Eh            7658.15542 eV
Virial Ratio       :            2.00862647


DFT components:
N(Alpha)           :       20.000010801301 electrons
N(Beta)            :       20.000010801301 electrons
N(Total)           :       40.000021602602 electrons
E(X)               :      -35.070313601643 Eh       
E(C)               :       -1.345034823830 Eh       
E(XC)              :      -36.415348425474 Eh       

---------------
SCF CONVERGENCE
---------------

  Last Energy change         ...   -7.3024e-09  Tolerance :   1.0000e-08
  Last MAX-Density change    ...    1.1527e-05  Tolerance :   1.0000e-07
  Last RMS-Density change    ...    3.4768e-07  Tolerance :   5.0000e-09
  Last Orbital Gradient      ...    2.4627e-06  Tolerance :   1.0000e-05
  Last Orbital Rotation      ...    6.2578e-06  Tolerance :   1.0000e-05

             **** THE GBW FILE WAS UPDATED (6-ttc_opt.gbw) ****
             **** DENSITY FILE WAS UPDATED (6-ttc_opt.scfp.tmp) ****
             **** ENERGY FILE WAS UPDATED (6-ttc_opt.en.tmp) ****
----------------
ORBITAL ENERGIES
----------------

  NO   OCC          E(Eh)            E(eV) 
   0   2.0000     -18.797879      -511.5163 
   1   2.0000     -18.740338      -509.9505 
   2   2.0000     -13.972489      -380.2108 
   3   2.0000     -10.012733      -272.4603 
   4   2.0000      -9.945777      -270.6383 
   5   2.0000      -0.966825       -26.3086 
   6   2.0000      -0.896546       -24.3963 
   7   2.0000      -0.805577       -21.9209 
   8   2.0000      -0.631514       -17.1844 
   9   2.0000      -0.537070       -14.6144 
  10   2.0000      -0.505810       -13.7638 
  11   2.0000      -0.454660       -12.3719 
  12   2.0000      -0.398639       -10.8475 
  13   2.0000      -0.394685       -10.7399 
  14   2.0000      -0.356723        -9.7069 
  15   2.0000      -0.334574        -9.1042 
  16   2.0000      -0.334418        -9.1000 
  17   2.0000      -0.264947        -7.2096 
  18   2.0000      -0.217857        -5.9282 
  19   2.0000      -0.184363        -5.0168 
  20   0.0000      -0.041949        -1.1415 
  21   0.0000       0.009718         0.2644 
  22   0.0000       0.024929         0.6784 
  23   0.0000       0.071553         1.9470 
  24   0.0000       0.093274         2.5381 
  25   0.0000       0.139327         3.7913 
  26   0.0000       0.141441         3.8488 
  27   0.0000       0.167944         4.5700 
  28   0.0000       0.254953         6.9376 
  29   0.0000       0.303203         8.2506 
  30   0.0000       0.369814        10.0632 
  31   0.0000       0.398446        10.8423 
  32   0.0000       0.436958        11.8902 
  33   0.0000       0.491949        13.3866 
  34   0.0000       0.512252        13.9391 
  35   0.0000       0.517343        14.0776 
  36   0.0000       0.527852        14.3636 
  37   0.0000       0.561807        15.2875 
  38   0.0000       0.597448        16.2574 
  39   0.0000       0.598729        16.2922 
  40   0.0000       0.606477        16.5031 
  41   0.0000       0.710930        19.3454 
  42   0.0000       0.749685        20.4000 
  43   0.0000       0.793777        21.5998 
  44   0.0000       0.806929        21.9577 
  45   0.0000       0.853531        23.2258 
  46   0.0000       0.878887        23.9157 
  47   0.0000       0.904013        24.5995 
  48   0.0000       0.942447        25.6453 
  49   0.0000       0.985906        26.8279 
  50   0.0000       1.071553        29.1584 
  51   0.0000       1.158145        31.5147 
  52   0.0000       1.164469        31.6868 
  53   0.0000       1.216658        33.1070 
  54   0.0000       1.259656        34.2770 
  55   0.0000       1.311712        35.6935 
  56   0.0000       1.346930        36.6518 
  57   0.0000       1.354619        36.8611 
  58   0.0000       1.492085        40.6017 
  59   0.0000       1.517075        41.2817 
  60   0.0000       1.540864        41.9290 
  61   0.0000       1.555900        42.3382 
  62   0.0000       1.611973        43.8640 
  63   0.0000       1.640583        44.6425 
  64   0.0000       1.729490        47.0618 
  65   0.0000       1.739970        47.3470 
  66   0.0000       1.750657        47.6378 
  67   0.0000       1.814304        49.3697 
  68   0.0000       1.855001        50.4771 
  69   0.0000       1.875186        51.0264 
  70   0.0000       1.909361        51.9564 
  71   0.0000       2.075113        56.4667 
  72   0.0000       2.129092        57.9355 
  73   0.0000       2.144931        58.3665 
  74   0.0000       2.164796        58.9071 
  75   0.0000       2.226317        60.5812 
  76   0.0000       2.307855        62.7999 
  77   0.0000       2.386129        64.9299 
  78   0.0000       2.551267        69.4235 
  79   0.0000       2.556282        69.5600 
  80   0.0000       2.606774        70.9339 
  81   0.0000       2.621337        71.3302 
  82   0.0000       2.682180        72.9858 
  83   0.0000       2.732102        74.3443 
  84   0.0000       2.786754        75.8314 
  85   0.0000       2.851768        77.6006 
  86   0.0000       2.897624        78.8484 
  87   0.0000       2.915094        79.3237 
  88   0.0000       3.000007        81.6344 
  89   0.0000       3.112970        84.7082 
  90   0.0000       3.166717        86.1707 
  91   0.0000       3.265501        88.8588 
  92   0.0000       3.472231        94.4842 
  93   0.0000       3.574189        97.2586 
  94   0.0000       3.662969        99.6745 

                    ********************************
                    * MULLIKEN POPULATION ANALYSIS *
                    ********************************

-----------------------
MULLIKEN ATOMIC CHARGES
-----------------------
   0 N :   -0.173595
   1 C :    0.004811
   2 H :    0.109625
   3 H :    0.109625
   4 C :    0.081045
   5 H :    0.045884
   6 H :    0.045884
   7 O :   -0.207494
   8 O :   -0.176515
   9 H :    0.160731
Sum of atomic charges:   -0.0000000

--------------------------------
MULLIKEN REDUCED ORBITAL CHARGES
--------------------------------
  0 N s       :     3.325638  s :     3.325638
      pz      :     0.957037  p :     3.833919
      px      :     1.355025
      py      :     1.521856
      dz2     :     0.004948  d :     0.014038
      dxz     :     0.002913
      dyz     :     0.000903
      dx2y2   :     0.002078
      dxy     :     0.003196
  1 C s       :     2.985310  s :     2.985310
      pz      :     1.043634  p :     2.960861
      px      :     0.987349
      py      :     0.929879
      dz2     :     0.006883  d :     0.049017
      dxz     :     0.009256
      dyz     :     0.004461
      dx2y2   :     0.017235
      dxy     :     0.011181
  2 H s       :     0.840595  s :     0.840595
      pz      :     0.021157  p :     0.049781
      px      :     0.013863
      py      :     0.014761
  3 H s       :     0.840595  s :     0.840595
      pz      :     0.021157  p :     0.049781
      px      :     0.013863
      py      :     0.014761
  4 C s       :     3.133994  s :     3.133994
      pz      :     0.854334  p :     2.676039
      px      :     0.908343
      py      :     0.913362
      dz2     :     0.006383  d :     0.108922
      dxz     :     0.020611
      dyz     :     0.008408
      dx2y2   :     0.026531
      dxy     :     0.046989
  5 H s       :     0.932939  s :     0.932939
      pz      :     0.010349  p :     0.021177
      px      :     0.006811
      py      :     0.004017
  6 H s       :     0.932939  s :     0.932939
      pz      :     0.010349  p :     0.021177
      px      :     0.006811
      py      :     0.004017
  7 O s       :     3.787788  s :     3.787788
      pz      :     1.360764  p :     4.404112
      px      :     1.299562
      py      :     1.743786
      dz2     :     0.001717  d :     0.015594
      dxz     :     0.004833
      dyz     :     0.000047
      dx2y2   :     0.005416
      dxy     :     0.003581
  8 O s       :     3.716502  s :     3.716502
      pz      :     1.771305  p :     4.448173
      px      :     1.166431
      py      :     1.510437
      dz2     :     0.001934  d :     0.011840
      dxz     :     0.000376
      dyz     :     0.002005
      dx2y2   :     0.003848
      dxy     :     0.003677
  9 H s       :     0.769354  s :     0.769354
      pz      :     0.019153  p :     0.069915
      px      :     0.034620
      py      :     0.016143


                     *******************************
                     * LOEWDIN POPULATION ANALYSIS *
                     *******************************

----------------------
LOEWDIN ATOMIC CHARGES
----------------------
   0 N :   -0.061710
   1 C :   -0.040242
   2 H :    0.055592
   3 H :    0.055592
   4 C :    0.072627
   5 H :    0.036314
   6 H :    0.036314
   7 O :   -0.171109
   8 O :   -0.060290
   9 H :    0.076913

-------------------------------
LOEWDIN REDUCED ORBITAL CHARGES
-------------------------------
  0 N s       :     3.023393  s :     3.023393
      pz      :     1.120459  p :     4.001801
      px      :     1.385451
      py      :     1.495890
      dz2     :     0.014032  d :     0.036516
      dxz     :     0.008634
      dyz     :     0.002143
      dx2y2   :     0.003643
      dxy     :     0.008065
  1 C s       :     2.853180  s :     2.853180
      pz      :     1.064501  p :     3.067204
      px      :     1.010935
      py      :     0.991768
      dz2     :     0.019752  d :     0.119857
      dxz     :     0.022578
      dyz     :     0.006588
      dx2y2   :     0.041174
      dxy     :     0.029765
  2 H s       :     0.803094  s :     0.803094
      pz      :     0.062180  p :     0.141314
      px      :     0.037284
      py      :     0.041850
  3 H s       :     0.803094  s :     0.803094
      pz      :     0.062180  p :     0.141314
      px      :     0.037284
      py      :     0.041850
  4 C s       :     2.915082  s :     2.915082
      pz      :     0.832400  p :     2.773497
      px      :     0.986673
      py      :     0.954424
      dz2     :     0.014773  d :     0.238794
      dxz     :     0.037099
      dyz     :     0.015346
      dx2y2   :     0.063925
      dxy     :     0.107651
  5 H s       :     0.898352  s :     0.898352
      pz      :     0.031165  p :     0.065334
      px      :     0.021843
      py      :     0.012326
  6 H s       :     0.898352  s :     0.898352
      pz      :     0.031165  p :     0.065334
      px      :     0.021843
      py      :     0.012326
  7 O s       :     3.591911  s :     3.591911
      pz      :     1.361981  p :     4.552119
      px      :     1.434604
      py      :     1.755534
      dz2     :     0.003946  d :     0.027079
      dxz     :     0.006022
      dyz     :     0.000046
      dx2y2   :     0.011872
      dxy     :     0.005192
  8 O s       :     3.468417  s :     3.468417
      pz      :     1.735688  p :     4.568095
      px      :     1.279132
      py      :     1.553274
      dz2     :     0.004273  d :     0.023779
      dxz     :     0.000559
      dyz     :     0.002097
      dx2y2   :     0.008665
      dxy     :     0.008184
  9 H s       :     0.740966  s :     0.740966
      pz      :     0.049043  p :     0.182121
      px      :     0.090026
      py      :     0.043052


                      *****************************
                      * MAYER POPULATION ANALYSIS *
                      *****************************

  NA   - Mulliken gross atomic population
  ZA   - Total nuclear charge
  QA   - Mulliken gross atomic charge
  VA   - Mayer's total valence
  BVA  - Mayer's bonded valence
  FA   - Mayer's free valence

  ATOM       NA         ZA         QA         VA         BVA        FA
  0 N      7.1736     7.0000    -0.1736     3.1908     3.1908    -0.0000
  1 C      5.9952     6.0000     0.0048     3.8931     3.8931    -0.0000
  2 H      0.8904     1.0000     0.1096     1.0168     1.0168    -0.0000
  3 H      0.8904     1.0000     0.1096     1.0168     1.0168    -0.0000
  4 C      5.9190     6.0000     0.0810     4.2493     4.2493     0.0000
  5 H      0.9541     1.0000     0.0459     0.9840     0.9840     0.0000
  6 H      0.9541     1.0000     0.0459     0.9840     0.9840     0.0000
  7 O      8.2075     8.0000    -0.2075     2.2910     2.2910     0.0000
  8 O      8.1765     8.0000    -0.1765     2.2372     2.2372     0.0000
  9 H      0.8393     1.0000     0.1607     1.0238     1.0238    -0.0000

  Mayer bond orders larger than 0.1
B(  0-N ,  1-C ) :   1.1606 B(  0-N ,  2-H ) :   0.9772 B(  0-N ,  3-H ) :   0.9772 
B(  1-C ,  4-C ) :   0.8962 B(  1-C ,  5-H ) :   0.9271 B(  1-C ,  6-H ) :   0.9271 
B(  4-C ,  7-O ) :   2.1197 B(  4-C ,  8-O ) :   1.1408 B(  7-O ,  8-O ) :   0.1008 
B(  8-O ,  9-H ) :   0.9644 

-------
TIMINGS
-------

Total SCF time: 0 days 0 hours 0 min 5 sec 

Total time                  ....       5.334 sec
Sum of individual times     ....       5.318 sec  ( 99.7%)

Fock matrix formation       ....       4.440 sec  ( 83.3%)
  Split-RI-J                ....       2.452 sec  ( 55.2% of F)
  XC integration            ....       1.978 sec  ( 44.6% of F)
    Basis function eval.    ....       0.831 sec  ( 42.0% of XC)
    Density eval.           ....       0.319 sec  ( 16.1% of XC)
    XC-Functional eval.     ....       0.233 sec  ( 11.8% of XC)
    XC-Potential eval.      ....       0.545 sec  ( 27.5% of XC)
Diagonalization             ....       0.014 sec  (  0.3%)
Density matrix formation    ....       0.001 sec  (  0.0%)
Population analysis         ....       0.002 sec  (  0.0%)
Initial guess               ....       0.233 sec  (  4.4%)
Orbital Transformation      ....       0.000 sec  (  0.0%)
Orbital Orthonormalization  ....       0.000 sec  (  0.0%)
DIIS solution               ....       0.003 sec  (  0.1%)
SOSCF solution              ....       0.007 sec  (  0.1%)
Grid generation             ....       0.616 sec  ( 11.6%)

-------------------------   --------------------
FINAL SINGLE POINT ENERGY      -283.859816066277
-------------------------   --------------------

------------------------------------------------------------------------------
                         ORCA SCF GRADIENT CALCULATION
------------------------------------------------------------------------------

Gradient of the Kohn-Sham DFT energy:
Kohn-Sham wavefunction type      ... RKS
Hartree-Fock exchange scaling    ...    0.000
Number of operators              ...    1
Number of atoms                  ...   10
Basis set dimensions             ...   95
Integral neglect threshold       ... 2.5e-11
Integral primitive cutoff        ... 2.5e-12

Nuclear repulsion gradient       ... done
One Electron Gradient            
  ECP gradient                   ... done
Pre-screening matrix             ... done
RI-J gradient                    ... done
Exchange-correlation gradient    ... done

------------------
CARTESIAN GRADIENT
------------------

   1   N   :    0.082513334   -0.022197873    0.000000000
   2   C   :   -0.009863406    0.005765316   -0.000000000
   3   H   :   -0.040275333    0.015298145   -0.016607564
   4   H   :   -0.040275331    0.015298144    0.016607564
   5   C   :   -0.058486074   -0.041394305   -0.000000000
   6   H   :    0.008530045   -0.001136724   -0.002702653
   7   H   :    0.008530045   -0.001136726    0.002702653
   8   O   :    0.073572185   -0.007635576   -0.000000000
   9   O   :   -0.041633543    0.029286634    0.000000000
  10   H   :    0.017388078    0.007852965    0.000000000

Difference to translation invariance:
           :   -0.0000000000   -0.0000000000   -0.0000000000

Norm of the cartesian gradient     ...    0.1594323753
RMS gradient                       ...    0.0291082361
MAX gradient                       ...    0.0825133342

-------
TIMINGS
-------

Total SCF gradient time            ...        2.270 sec

One electron gradient       ....       0.031 sec  (  1.4%)
Prescreening matrices       ....       0.040 sec  (  1.8%)
RI-J Coulomb gradient       ....       0.379 sec  ( 16.7%)
XC gradient                 ....       1.715 sec  ( 75.5%)
------------------------------------------------------------------------------
                         ORCA GEOMETRY RELAXATION STEP
------------------------------------------------------------------------------

Reading the OPT-File                    .... done
Getting information on internals        .... done
Copying old internal coords+grads       .... done
Making the new internal coordinates     .... (new redundants).... done
Validating the new internal coordinates .... (new redundants).... done
Calculating the B-matrix                .... done
Calculating the G,G- and P matrices     .... done
Transforming gradient to internals      .... done
Projecting the internal gradient        .... done
Number of atoms                         ....  10
Number of internal coordinates          ....  36
Current Energy                          ....  -283.859816066 Eh
Current gradient norm                   ....     0.159432375 Eh/bohr
Maximum allowed component of the step   ....  0.300
Current trust radius                    ....  0.300
Evaluating the initial hessian          ....  (Almloef) done
Projecting the Hessian                  .... done
Forming the augmented Hessian           .... done
Diagonalizing the augmented Hessian     .... done
Last element of RFO vector              ....  0.965687712
Lowest eigenvalues of augmented Hessian:
 -0.027222960  0.011038153  0.012467171  0.016753706  0.017319934
Length of the computed step             ....  0.268933806
The final length of the internal step   ....  0.268933806
Converting the step to cartesian space:
 Initial RMS(Int)=    0.0448223009
Transforming coordinates:
 Iter   0:  RMS(Cart)=    0.0705017504 RMS(Int)=    1.0481654827
 Iter   1:  RMS(Cart)=    0.0022195506 RMS(Int)=    0.0023027861
 Iter   2:  RMS(Cart)=    0.0001242868 RMS(Int)=    0.0001987013
 Iter   3:  RMS(Cart)=    0.0000176542 RMS(Int)=    0.0000169693
 Iter   4:  RMS(Cart)=    0.0000014577 RMS(Int)=    0.0000018351
 Iter   5:  RMS(Cart)=    0.0000001562 RMS(Int)=    0.0000001530
 Iter   6:  RMS(Cart)=    0.0000000162 RMS(Int)=    0.0000000163
done
Storing new coordinates                 .... done

                                .--------------------.
          ----------------------|Geometry convergence|-------------------------
          Item                value                   Tolerance       Converged
          ---------------------------------------------------------------------
          RMS gradient        0.0196576981            0.0001000000      NO
          MAX gradient        0.0728744805            0.0003000000      NO
          RMS step            0.0448223009            0.0020000000      NO
          MAX step            0.1325357610            0.0040000000      NO
          ........................................................
          Max(Bonds)      0.0460      Max(Angles)    7.59
          Max(Dihed)        3.60      Max(Improp)    0.00
          ---------------------------------------------------------------------

The optimization has not yet converged - more geometry cycles are needed


    ---------------------------------------------------------------------------
                         Redundant Internal Coordinates
                            (Angstroem and degrees)

        Definition                    Value    dE/dq     Step     New-Value
    ----------------------------------------------------------------------------
     1. B(C   1,N   0)                1.4490 -0.004735  0.0052    1.4542   
     2. B(H   2,N   0)                0.9806 -0.029388  0.0305    1.0112   
     3. B(H   3,N   0)                0.9806 -0.029388  0.0305    1.0112   
     4. B(C   4,C   1)                1.5219 -0.014708  0.0189    1.5408   
     5. B(H   5,C   1)                1.1105 -0.002449  0.0036    1.1140   
     6. B(H   6,C   1)                1.1105 -0.002449  0.0036    1.1140   
     7. B(O   7,C   4)                1.2584  0.072874 -0.0413    1.2171   
     8. B(O   8,C   4)                1.4300  0.044349 -0.0460    1.3840   
     9. B(H   9,O   8)                0.9599 -0.018795  0.0182    0.9781   
    10. A(C   1,N   0,H   3)          105.91 -0.023476    3.20    109.11   
    11. A(H   2,N   0,H   3)          142.95  0.042130   -7.59    135.36   
    12. A(C   1,N   0,H   2)          105.91 -0.023476    3.20    109.11   
    13. A(C   4,C   1,H   5)          107.87  0.005119   -0.61    107.26   
    14. A(N   0,C   1,H   5)          109.56  0.001547    0.24    109.80   
    15. A(N   0,C   1,H   6)          109.56  0.001547    0.24    109.80   
    16. A(H   5,C   1,H   6)          111.56  0.004241   -2.61    108.94   
    17. A(C   4,C   1,H   6)          107.87  0.005119   -0.61    107.26   
    18. A(N   0,C   1,C   4)          110.40 -0.017902    3.41    113.81   
    19. A(O   7,C   4,O   8)          120.00  0.007506   -0.87    119.14   
    20. A(C   1,C   4,O   8)          120.00  0.015096   -2.06    117.94   
    21. A(C   1,C   4,O   7)          120.00 -0.022603    2.93    122.93   
    22. A(C   4,O   8,H   9)          109.50  0.005929   -0.89    108.61   
    23. D(H   6,C   1,N   0,H   2)    -38.28  0.005819   -3.60    -41.87   
    24. D(H   5,C   1,N   0,H   3)     38.28 -0.005819    3.60     41.87   
    25. D(H   6,C   1,N   0,H   3)    160.97  0.001471    0.65    161.62   
    26. D(H   5,C   1,N   0,H   2)   -160.97 -0.001471   -0.65   -161.62   
    27. D(C   4,C   1,N   0,H   2)     80.38  0.002174   -2.13     78.25   
    28. D(C   4,C   1,N   0,H   3)    -80.38 -0.002174    2.13    -78.25   
    29. D(O   7,C   4,C   1,N   0)      0.00  0.000000   -0.00     -0.00   
    30. D(O   8,C   4,C   1,H   6)    -60.32 -0.005425    1.91    -58.41   
    31. D(O   8,C   4,C   1,H   5)     60.32  0.005425   -1.91     58.41   
    32. D(O   8,C   4,C   1,N   0)    180.00  0.000000   -0.00    180.00   
    33. D(O   7,C   4,C   1,H   6)    119.68 -0.005425    1.91    121.59   
    34. D(O   7,C   4,C   1,H   5)   -119.68  0.005425   -1.91   -121.59   
    35. D(H   9,O   8,C   4,O   7)    180.00 -0.000000    0.00    180.00   
    36. D(H   9,O   8,C   4,C   1)      0.00  0.000000   -0.00     -0.00   
    ----------------------------------------------------------------------------

         *************************************************************
         *                GEOMETRY OPTIMIZATION CYCLE   2            *
         *************************************************************
---------------------------------
CARTESIAN COORDINATES (ANGSTROEM)
---------------------------------
  N      0.174394   -1.879047   -0.000000
  C     -0.764261   -0.768326    0.000000
  H      0.536683   -2.006330    0.935422
  H      0.536683   -2.006330   -0.935422
  C     -0.088269    0.616215    0.000000
  H     -1.409693   -0.820051   -0.906549
  H     -1.409693   -0.820051    0.906549
  O      1.120017    0.762513    0.000000
  O     -0.902557    1.735289   -0.000000
  H     -1.835713    1.442258   -0.000000

----------------------------
CARTESIAN COORDINATES (A.U.)
----------------------------
  NO LB      ZA    FRAG     MASS         X           Y           Z
   0 N     7.0000    0    14.007    0.329557   -3.550885   -0.000000
   1 C     6.0000    0    12.011   -1.444243   -1.451926    0.000000
   2 H     1.0000    0     1.008    1.014183   -3.791415    1.767691
   3 H     1.0000    0     1.008    1.014183   -3.791415   -1.767691
   4 C     6.0000    0    12.011   -0.166805    1.164478    0.000000
   5 H     1.0000    0     1.008   -2.663934   -1.549672   -1.713130
   6 H     1.0000    0     1.008   -2.663934   -1.549672    1.713130
   7 O     8.0000    0    15.999    2.116525    1.440941    0.000000
   8 O     8.0000    0    15.999   -1.705586    3.279221   -0.000000
   9 H     1.0000    0     1.008   -3.468994    2.725473   -0.000000

--------------------------------
INTERNAL COORDINATES (ANGSTROEM)
--------------------------------
 N      0   0   0     0.000000000000     0.00000000     0.00000000
 C      1   0   0     1.454226144209     0.00000000     0.00000000
 H      1   2   0     1.011171570388   109.11134302     0.00000000
 H      1   2   3     1.011171569482   109.11134249   203.49844418
 C      2   1   3     1.540752829190   113.77573371    78.25077788
 H      2   1   3     1.114042321442   109.78525657   198.39106860
 H      2   1   3     1.114042320864   109.78525707   318.11048711
 O      5   2   1     1.217110535092   122.92729043     0.00000000
 O      5   2   1     1.383976878090   117.93511756   180.00000000
 H      9   5   2     0.978082968406   108.60788256     0.00000000

---------------------------
INTERNAL COORDINATES (A.U.)
---------------------------
 N      0   0   0     0.000000000000     0.00000000     0.00000000
 C      1   0   0     2.748089149343     0.00000000     0.00000000
 H      1   2   0     1.910837342439   109.11134302     0.00000000
 H      1   2   3     1.910837340729   109.11134249   203.49844418
 C      2   1   3     2.911600887234   113.77573371    78.25077788
 H      2   1   3     2.105234889123   109.78525657   198.39106860
 H      2   1   3     2.105234888031   109.78525707   318.11048711
 O      5   2   1     2.300005586034   122.92729043     0.00000000
 O      5   2   1     2.615337275270   117.93511756   180.00000000
 H      9   5   2     1.848308946539   108.60788256     0.00000000

 One Electron integrals                  ... done
 Pre-screening matrix                    ... done

Diagonalization of the overlap matrix:
Smallest eigenvalue                        ... 2.655e-03
Time for diagonalization                   ...    0.004 sec
Threshold for overlap eigenvalues          ... 1.000e-08
Number of eigenvalues below threshold      ... 0
Time for construction of square roots      ...    0.001 sec
Total time needed                          ...    0.005 sec

-------------------
DFT GRID GENERATION
-------------------

General Integration Accuracy     IntAcc      ...  4.340
Radial Grid Type                 RadialGrid  ... Gauss-Chebyshev
Angular Grid (max. acc.)         AngularGrid ... Lebedev-110
Angular grid pruning method      GridPruning ... 3 (G Style)
Weight generation scheme         WeightScheme... Becke
Basis function cutoff            BFCut       ...    1.0000e-11
Integration weight cutoff        WCut        ...    1.0000e-14
Grids for H and He will be reduced by one unit

# of grid points (after initial pruning)     ...  12416 (   0.0 sec)
# of grid points (after weights+screening)   ...  11844 (   0.0 sec)
nearest neighbour list constructed           ...    0.0 sec
Grid point re-assignment to atoms done       ...    0.0 sec
Grid point division into batches done        ...    0.0 sec
Reduced shell lists constructed in    0.1 sec

Total number of grid points                  ...    11844
Total number of batches                      ...      189
Average number of points per batch           ...       62
Average number of grid points per atom       ...     1184
Average number of shells per batch           ...    35.86 (79.70%)
Average number of basis functions per batch  ...    75.29 (79.26%)
Average number of large shells per batch     ...    29.96 (83.55%)
Average number of large basis fcns per batch ...    61.81 (82.08%)
Maximum spatial batch extension              ...  19.94, 16.43, 25.60 au
Average spatial batch extension              ...   4.05,  3.92,  4.26 au

Time for grid setup =    0.154 sec

--------------
SCF ITERATIONS
--------------
ITER       Energy         Delta-E        Max-DP      RMS-DP      [F,P]     Damp
               ***  Starting incremental Fock matrix formation  ***
  0   -283.8718242687   0.000000000000 0.00887942  0.00049867  0.0262269 0.7000
                      *** Initiating the SOSCF procedure ***
                      *** Re-Reading the Fockian *** 
                      *** Removing any level shift *** 
ITER      Energy       Delta-E        Grad      Rot      Max-DP    RMS-DP
  1   -283.87377647  -0.0019522011  0.002110  0.002110  0.027585  0.001484
               *** Restarting incremental Fock matrix formation ***
  2   -283.87830994  -0.0045334685  0.001979  0.004112  0.010666  0.000463
  3   -283.87824338   0.0000665615  0.003094  0.005122  0.006797  0.000283
  4   -283.87839535  -0.0001519762  0.001811  0.004410  0.006902  0.000232
  5   -283.87833319   0.0000621591  0.002727  0.002668  0.004684  0.000160
  6   -283.87841594  -0.0000827414  0.000338  0.000333  0.000989  0.000050
  7   -283.87841469   0.0000012465  0.000399  0.000297  0.000770  0.000028
  8   -283.87841732  -0.0000026286  0.000057  0.000125  0.000211  0.000011
  9   -283.87841726   0.0000000551  0.000101  0.000068  0.000150  0.000006
 10   -283.87841737  -0.0000001080  0.000014  0.000035  0.000074  0.000004
 11   -283.87841737   0.0000000028  0.000019  0.000015  0.000042  0.000002
 12   -283.87841738  -0.0000000083  0.000003  0.000004  0.000016  0.000001
 13   -283.87841737   0.0000000009  0.000003  0.000003  0.000009  0.000000
                 **** Energy Check signals convergence ****
              ***Rediagonalizing the Fockian in SOSCF/NRSCF***

               *****************************************************
               *                     SUCCESS                       *
               *           SCF CONVERGED AFTER  14 CYCLES          *
               *****************************************************

Setting up the final grid:

General Integration Accuracy     IntAcc      ...  4.670
Radial Grid Type                 RadialGrid  ... Gauss-Chebyshev
Angular Grid (max. acc.)         AngularGrid ... Lebedev-302
Angular grid pruning method      GridPruning ... 3 (G Style)
Weight generation scheme         WeightScheme... Becke
Basis function cutoff            BFCut       ...    1.0000e-11
Integration weight cutoff        WCut        ...    1.0000e-14
Grids for H and He will be reduced by one unit

# of grid points (after initial pruning)     ...  48030 (   0.0 sec)
# of grid points (after weights+screening)   ...  45303 (   0.1 sec)
nearest neighbour list constructed           ...    0.0 sec
Grid point re-assignment to atoms done       ...    0.0 sec
Grid point division into batches done        ...    0.1 sec
Reduced shell lists constructed in    0.4 sec

Total number of grid points                  ...    45303
Total number of batches                      ...      713
Average number of points per batch           ...       63
Average number of grid points per atom       ...     4530
Average number of shells per batch           ...    32.99 (73.31%)
Average number of basis functions per batch  ...    69.01 (72.64%)
Average number of large shells per batch     ...    27.03 (81.94%)
Average number of large basis fcns per batch ...    55.15 (79.92%)
Maximum spatial batch extension              ...  21.43, 25.70, 20.96 au
Average spatial batch extension              ...   2.72,  2.78,  2.83 au

Final grid set up in    0.5 sec
Final integration                            ... done (   0.4 sec)
Change in XC energy                          ...    -0.000367165
Integrated number of electrons               ...    39.999987794
Previous integrated no of electrons          ...    39.997448769
Total Energy       :         -283.87878454 Eh           -7724.73445 eV
  Last Energy change         ...    4.5679e-10  Tolerance :   1.0000e-08
  Last MAX-Density change    ...    2.9778e-07  Tolerance :   1.0000e-07
             **** THE GBW FILE WAS UPDATED (6-ttc_opt.gbw) ****
             **** DENSITY FILE WAS UPDATED (6-ttc_opt.scfp.tmp) ****
             **** ENERGY FILE WAS UPDATED (6-ttc_opt.en.tmp) ****
Total SCF time: 0 days 0 hours 0 min 5 sec 

-------------------------   --------------------
FINAL SINGLE POINT ENERGY      -283.878784539792
-------------------------   --------------------

------------------------------------------------------------------------------
                         ORCA SCF GRADIENT CALCULATION
------------------------------------------------------------------------------

Gradient of the Kohn-Sham DFT energy:
Kohn-Sham wavefunction type      ... RKS
Hartree-Fock exchange scaling    ...    0.000
Number of operators              ...    1
Number of atoms                  ...   10
Basis set dimensions             ...   95
Integral neglect threshold       ... 2.5e-11
Integral primitive cutoff        ... 2.5e-12

Nuclear repulsion gradient       ... done
One Electron Gradient            
  ECP gradient                   ... done
Pre-screening matrix             ... done
RI-J gradient                    ... done
Exchange-correlation gradient    ... done

------------------
CARTESIAN GRADIENT
------------------

   1   N   :    0.054255481   -0.022203414   -0.000000001
   2   C   :   -0.010739436    0.006887323    0.000000001
   3   H   :   -0.023794475    0.008319470    0.009212912
   4   H   :   -0.023794475    0.008319469   -0.009212912
   5   C   :   -0.016328986   -0.015685738   -0.000000000
   6   H   :    0.004505994   -0.000394186   -0.002423984
   7   H   :    0.004505993   -0.000394186    0.002423984
   8   O   :    0.013627083    0.000967555    0.000000000
   9   O   :   -0.003687485    0.014123235   -0.000000000
  10   H   :    0.001450307    0.000060472    0.000000000

Difference to translation invariance:
           :    0.0000000000   -0.0000000000    0.0000000000

Norm of the cartesian gradient     ...    0.0775055377
RMS gradient                       ...    0.0141505104
MAX gradient                       ...    0.0542554808

-------
TIMINGS
-------

Total SCF gradient time            ...        2.340 sec

One electron gradient       ....       0.038 sec  (  1.6%)
Prescreening matrices       ....       0.043 sec  (  1.9%)
RI-J Coulomb gradient       ....       0.357 sec  ( 15.3%)
XC gradient                 ....       1.729 sec  ( 73.9%)
------------------------------------------------------------------------------
                         ORCA GEOMETRY RELAXATION STEP
------------------------------------------------------------------------------

Reading the OPT-File                    .... done
Getting information on internals        .... done
Copying old internal coords+grads       .... done
Making the new internal coordinates     .... (new redundants).... done
Validating the new internal coordinates .... (new redundants).... done
Calculating the B-matrix                .... done
Calculating the G,G- and P matrices     .... done
Transforming gradient to internals      .... done
Projecting the internal gradient        .... done
Number of atoms                         ....  10
Number of internal coordinates          ....  36
Current Energy                          ....  -283.878784540 Eh
Current gradient norm                   ....     0.077505538 Eh/bohr
Maximum allowed component of the step   ....  0.300
Current trust radius                    ....  0.300
Updating the Hessian (BFGS)             .... done
Forming the augmented Hessian           .... done
Diagonalizing the augmented Hessian     .... done
Last element of RFO vector              ....  0.938725653
Lowest eigenvalues of augmented Hessian:
 -0.013943754  0.011038153  0.012467171  0.016753706  0.017319934
Length of the computed step             ....  0.367162939
Warning: the length of the step is outside the trust region - taking restricted step instead
The input lambda is                     ....    -0.013944
   iter:   1  x=   -0.025029  g=    4.042315 f(x)=     0.044809
   iter:   2  x=   -0.029583  g=    2.341005 f(x)=     0.010662
   iter:   3  x=   -0.030083  g=    1.935150 f(x)=     0.000967
   iter:   4  x=   -0.030088  g=    1.897021 f(x)=     0.000010
   iter:   5  x=   -0.030088  g=    1.896641 f(x)=     0.000000
   iter:   6  x=   -0.030088  g=    1.896641 f(x)=     0.000000
The output lambda is                    ....    -0.030088 (6 iterations)
The final length of the internal step   ....  0.300000000
Converting the step to cartesian space:
 Initial RMS(Int)=    0.0500000000
Transforming coordinates:
 Iter   0:  RMS(Cart)=    0.0497540650 RMS(Int)=    1.0484229485
 Iter   1:  RMS(Cart)=    0.0025902259 RMS(Int)=    0.0026298616
 Iter   2:  RMS(Cart)=    0.0001548410 RMS(Int)=    0.0002178411
 Iter   3:  RMS(Cart)=    0.0000232450 RMS(Int)=    0.0000210569
 Iter   4:  RMS(Cart)=    0.0000015279 RMS(Int)=    0.0000020487
 Iter   5:  RMS(Cart)=    0.0000002173 RMS(Int)=    0.0000001882
 Iter   6:  RMS(Cart)=    0.0000000145 RMS(Int)=    0.0000000195
done
Storing new coordinates                 .... done

                                .--------------------.
          ----------------------|Geometry convergence|-------------------------
          Item                value                   Tolerance       Converged
          ---------------------------------------------------------------------
          Energy change      -0.0189684735            0.0000050000      NO
          RMS gradient        0.0079903589            0.0001000000      NO
          MAX gradient        0.0314894639            0.0003000000      NO
          RMS step            0.0500000000            0.0020000000      NO
          MAX step            0.1806219493            0.0040000000      NO
          ........................................................
          Max(Bonds)      0.0287      Max(Angles)   10.35
          Max(Dihed)        5.42      Max(Improp)    0.00
          ---------------------------------------------------------------------

The optimization has not yet converged - more geometry cycles are needed


    ---------------------------------------------------------------------------
                         Redundant Internal Coordinates
                            (Angstroem and degrees)

        Definition                    Value    dE/dq     Step     New-Value
    ----------------------------------------------------------------------------
     1. B(C   1,N   0)                1.4542  0.008549 -0.0132    1.4410   
     2. B(H   2,N   0)                1.0112 -0.001051  0.0075    1.0186   
     3. B(H   3,N   0)                1.0112 -0.001051  0.0075    1.0186   
     4. B(C   4,C   1)                1.5408 -0.002637  0.0085    1.5493   
     5. B(H   5,C   1)                1.1140 -0.000619  0.0020    1.1160   
     6. B(H   6,C   1)                1.1140 -0.000619  0.0020    1.1160   
     7. B(O   7,C   4)                1.2171  0.013648 -0.0203    1.1968   
     8. B(O   8,C   4)                1.3840  0.012782 -0.0287    1.3553   
     9. B(H   9,O   8)                0.9781 -0.001410  0.0056    0.9837   
    10. A(C   1,N   0,H   3)          109.11 -0.016636    3.52    112.64   
    11. A(H   2,N   0,H   3)          135.36  0.031489  -10.35    125.01   
    12. A(C   1,N   0,H   2)          109.11 -0.016636    3.52    112.64   
    13. A(C   4,C   1,H   5)          107.21  0.000640   -0.18    107.03   
    14. A(N   0,C   1,H   5)          109.79 -0.000748    0.45    110.23   
    15. A(N   0,C   1,H   6)          109.79 -0.000748    0.45    110.23   
    16. A(H   5,C   1,H   6)          108.93  0.003332   -2.25    106.68   
    17. A(C   4,C   1,H   6)          107.21  0.000640   -0.18    107.03   
    18. A(N   0,C   1,C   4)          113.78 -0.002783    1.60    115.38   
    19. A(O   7,C   4,O   8)          119.14 -0.004958    0.84    119.97   
    20. A(C   1,C   4,O   8)          117.94  0.011488   -2.71    115.22   
    21. A(C   1,C   4,O   7)          122.93 -0.006530    1.87    124.80   
    22. A(C   4,O   8,H   9)          108.61 -0.000691   -0.00    108.61   
    23. D(H   6,C   1,N   0,H   2)    -41.89  0.004945   -5.42    -47.31   
    24. D(H   5,C   1,N   0,H   3)     41.89 -0.004945    5.42     47.31   
    25. D(H   6,C   1,N   0,H   3)    161.61 -0.001774    3.21    164.82   
    26. D(H   5,C   1,N   0,H   2)   -161.61  0.001774   -3.21   -164.82   
    27. D(C   4,C   1,N   0,H   2)     78.25  0.003360   -4.32     73.93   
    28. D(C   4,C   1,N   0,H   3)    -78.25 -0.003360    4.32    -73.93   
    29. D(O   7,C   4,C   1,N   0)     -0.00 -0.000000    0.00     -0.00   
    30. D(O   8,C   4,C   1,H   6)    -58.42 -0.002258    1.41    -57.01   
    31. D(O   8,C   4,C   1,H   5)     58.42  0.002258   -1.41     57.01   
    32. D(O   8,C   4,C   1,N   0)    180.00  0.000000   -0.00    180.00   
    33. D(O   7,C   4,C   1,H   6)    121.58 -0.002258    1.41    122.99   
    34. D(O   7,C   4,C   1,H   5)   -121.58  0.002258   -1.41   -122.99   
    35. D(H   9,O   8,C   4,O   7)   -180.00  0.000000   -0.00   -180.00   
    36. D(H   9,O   8,C   4,C   1)     -0.00  0.000000   -0.00     -0.00   
    ----------------------------------------------------------------------------

         *************************************************************
         *                GEOMETRY OPTIMIZATION CYCLE   3            *
         *************************************************************
---------------------------------
CARTESIAN COORDINATES (ANGSTROEM)
---------------------------------
  N      0.121776   -1.885393   -0.000000
  C     -0.763586   -0.748481    0.000000
  H      0.567810   -2.034697    0.903553
  H      0.567810   -2.034697   -0.903553
  C     -0.066289    0.634992    0.000000
  H     -1.429325   -0.778158   -0.895227
  H     -1.429325   -0.778158    0.895227
  O      1.118727    0.802654    0.000000
  O     -0.901159    1.702573   -0.000000
  H     -1.828848    1.375505   -0.000000

----------------------------
CARTESIAN COORDINATES (A.U.)
----------------------------
  NO LB      ZA    FRAG     MASS         X           Y           Z
   0 N     7.0000    0    14.007    0.230123   -3.562877   -0.000000
   1 C     6.0000    0    12.011   -1.442969   -1.414424    0.000000
   2 H     1.0000    0     1.008    1.073006   -3.845020    1.707468
   3 H     1.0000    0     1.008    1.073006   -3.845020   -1.707468
   4 C     6.0000    0    12.011   -0.125268    1.199962    0.000000
   5 H     1.0000    0     1.008   -2.701033   -1.470506   -1.691733
   6 H     1.0000    0     1.008   -2.701033   -1.470506    1.691733
   7 O     8.0000    0    15.999    2.114087    1.516797    0.000000
   8 O     8.0000    0    15.999   -1.702944    3.217396   -0.000000
   9 H     1.0000    0     1.008   -3.456023    2.599328   -0.000000

--------------------------------
INTERNAL COORDINATES (ANGSTROEM)
--------------------------------
 N      0   0   0     0.000000000000     0.00000000     0.00000000
 C      1   0   0     1.440984263782     0.00000000     0.00000000
 H      1   2   0     1.018649641937   112.62353887     0.00000000
 H      1   2   3     1.018649639832   112.62353776   212.12764228
 C      2   1   3     1.549264870208   115.34159130    73.93617906
 H      2   1   3     1.116028369535   110.21434632   195.19805874
 H      2   1   3     1.116028368044   110.21434672   312.67429926
 O      5   2   1     1.196817926801   124.80203697     0.00000000
 O      5   2   1     1.355262272269   115.22485198   179.99999879
 H      9   5   2     0.983656689164   108.60547883     0.00000000

---------------------------
INTERNAL COORDINATES (A.U.)
---------------------------
 N      0   0   0     0.000000000000     0.00000000     0.00000000
 C      1   0   0     2.723065621837     0.00000000     0.00000000
 H      1   2   0     1.924968849678   112.62353887     0.00000000
 H      1   2   3     1.924968845700   112.62353776   212.12764228
 C      2   1   3     2.927686313599   115.34159130    73.93617906
 H      2   1   3     2.108987976108   110.21434632   195.19805874
 H      2   1   3     2.108987973290   110.21434672   312.67429926
 O      5   2   1     2.261658113821   124.80203697     0.00000000
 O      5   2   1     2.561074534225   115.22485198   179.99999879
 H      9   5   2     1.858841752320   108.60547883     0.00000000

 One Electron integrals                  ... done
 Pre-screening matrix                    ... done

Diagonalization of the overlap matrix:
Smallest eigenvalue                        ... 2.741e-03
Time for diagonalization                   ...    0.002 sec
Threshold for overlap eigenvalues          ... 1.000e-08
Number of eigenvalues below threshold      ... 0
Time for construction of square roots      ...    0.000 sec
Total time needed                          ...    0.002 sec

-------------------
DFT GRID GENERATION
-------------------

General Integration Accuracy     IntAcc      ...  4.340
Radial Grid Type                 RadialGrid  ... Gauss-Chebyshev
Angular Grid (max. acc.)         AngularGrid ... Lebedev-110
Angular grid pruning method      GridPruning ... 3 (G Style)
Weight generation scheme         WeightScheme... Becke
Basis function cutoff            BFCut       ...    1.0000e-11
Integration weight cutoff        WCut        ...    1.0000e-14
Grids for H and He will be reduced by one unit

# of grid points (after initial pruning)     ...  12416 (   0.0 sec)
# of grid points (after weights+screening)   ...  11853 (   0.0 sec)
nearest neighbour list constructed           ...    0.0 sec
Grid point re-assignment to atoms done       ...    0.0 sec
Grid point division into batches done        ...    0.0 sec
Reduced shell lists constructed in    0.1 sec

Total number of grid points                  ...    11853
Total number of batches                      ...      191
Average number of points per batch           ...       62
Average number of grid points per atom       ...     1185
Average number of shells per batch           ...    35.86 (79.70%)
Average number of basis functions per batch  ...    75.43 (79.40%)
Average number of large shells per batch     ...    29.97 (83.58%)
Average number of large basis fcns per batch ...    61.84 (81.98%)
Maximum spatial batch extension              ...  19.99, 17.05, 25.60 au
Average spatial batch extension              ...   4.00,  3.94,  4.20 au

Time for grid setup =    0.098 sec

--------------
SCF ITERATIONS
--------------
ITER       Energy         Delta-E        Max-DP      RMS-DP      [F,P]     Damp
               ***  Starting incremental Fock matrix formation  ***
  0   -283.8842269953   0.000000000000 0.00601385  0.00036230  0.0194457 0.7000
                      *** Initiating the SOSCF procedure ***
                      *** Re-Reading the Fockian *** 
                      *** Removing any level shift *** 
ITER      Energy       Delta-E        Grad      Rot      Max-DP    RMS-DP
  1   -283.88518434  -0.0009573480  0.001590  0.001590  0.017235  0.001075
               *** Restarting incremental Fock matrix formation ***
  2   -283.88744279  -0.0022584475  0.001681  0.004903  0.008070  0.000356
  3   -283.88737984   0.0000629556  0.003931  0.005083  0.006659  0.000212
  4   -283.88747422  -0.0000943825  0.001172  0.001767  0.005062  0.000178
  5   -283.88746091   0.0000133112  0.001456  0.001012  0.002870  0.000113
  6   -283.88748819  -0.0000272823  0.000160  0.000349  0.000633  0.000035
  7   -283.88748742   0.0000007652  0.000272  0.000281  0.000517  0.000020
  8   -283.88748871  -0.0000012859  0.000034  0.000065  0.000148  0.000007
  9   -283.88748869   0.0000000206  0.000048  0.000031  0.000077  0.000004
 10   -283.88748873  -0.0000000422  0.000008  0.000015  0.000047  0.000002
 11   -283.88748873  -0.0000000009  0.000007  0.000007  0.000027  0.000001
                  ***Gradient check signals convergence***
              ***Rediagonalizing the Fockian in SOSCF/NRSCF***

               *****************************************************
               *                     SUCCESS                       *
               *           SCF CONVERGED AFTER  12 CYCLES          *
               *****************************************************

Setting up the final grid:

General Integration Accuracy     IntAcc      ...  4.670
Radial Grid Type                 RadialGrid  ... Gauss-Chebyshev
Angular Grid (max. acc.)         AngularGrid ... Lebedev-302
Angular grid pruning method      GridPruning ... 3 (G Style)
Weight generation scheme         WeightScheme... Becke
Basis function cutoff            BFCut       ...    1.0000e-11
Integration weight cutoff        WCut        ...    1.0000e-14
Grids for H and He will be reduced by one unit

# of grid points (after initial pruning)     ...  48030 (   0.0 sec)
# of grid points (after weights+screening)   ...  45308 (   0.1 sec)
nearest neighbour list constructed           ...    0.0 sec
Grid point re-assignment to atoms done       ...    0.0 sec
Grid point division into batches done        ...    0.1 sec
Reduced shell lists constructed in    0.4 sec

Total number of grid points                  ...    45308
Total number of batches                      ...      713
Average number of points per batch           ...       63
Average number of grid points per atom       ...     4531
Average number of shells per batch           ...    32.96 (73.24%)
Average number of basis functions per batch  ...    68.98 (72.62%)
Average number of large shells per batch     ...    27.07 (82.12%)
Average number of large basis fcns per batch ...    55.24 (80.08%)
Maximum spatial batch extension              ...  19.91, 22.22, 19.95 au
Average spatial batch extension              ...   2.71,  2.75,  2.80 au

Final grid set up in    0.5 sec
Final integration                            ... done (   0.4 sec)
Change in XC energy                          ...     0.000065981
Integrated number of electrons               ...    39.999928000
Previous integrated no of electrons          ...    39.999417826
Total Energy       :         -283.88742275 Eh           -7724.96950 eV
  Last Energy change         ...   -3.5271e-10  Tolerance :   1.0000e-08
  Last MAX-Density change    ...    5.1467e-06  Tolerance :   1.0000e-07
             **** THE GBW FILE WAS UPDATED (6-ttc_opt.gbw) ****
             **** DENSITY FILE WAS UPDATED (6-ttc_opt.scfp.tmp) ****
             **** ENERGY FILE WAS UPDATED (6-ttc_opt.en.tmp) ****
Total SCF time: 0 days 0 hours 0 min 4 sec 

-------------------------   --------------------
FINAL SINGLE POINT ENERGY      -283.887422751882
-------------------------   --------------------

------------------------------------------------------------------------------
                         ORCA SCF GRADIENT CALCULATION
------------------------------------------------------------------------------

Gradient of the Kohn-Sham DFT energy:
Kohn-Sham wavefunction type      ... RKS
Hartree-Fock exchange scaling    ...    0.000
Number of operators              ...    1
Number of atoms                  ...   10
Basis set dimensions             ...   95
Integral neglect threshold       ... 2.5e-11
Integral primitive cutoff        ... 2.5e-12

Nuclear repulsion gradient       ... done
One Electron Gradient            
  ECP gradient                   ... done
Pre-screening matrix             ... done
RI-J gradient                    ... done
Exchange-correlation gradient    ... done

------------------
CARTESIAN GRADIENT
------------------

   1   N   :    0.032380432   -0.006911222   -0.000000001
   2   C   :   -0.009050752    0.003319542    0.000000001
   3   H   :   -0.013370748    0.001658783    0.010181909
   4   H   :   -0.013370750    0.001658785   -0.010181908
   5   C   :    0.012551834    0.005211589    0.000000001
   6   H   :    0.001580991    0.000143819   -0.001368141
   7   H   :    0.001580991    0.000143819    0.001368140
   8   O   :   -0.021868885    0.000343919   -0.000000001
   9   O   :    0.012840756   -0.002879001   -0.000000000
  10   H   :   -0.003273869   -0.002690033   -0.000000000

Difference to translation invariance:
           :   -0.0000000000   -0.0000000000   -0.0000000000

Norm of the cartesian gradient     ...    0.0512111334
RMS gradient                       ...    0.0093498310
MAX gradient                       ...    0.0323804316

-------
TIMINGS
-------

Total SCF gradient time            ...        2.337 sec

One electron gradient       ....       0.036 sec  (  1.5%)
Prescreening matrices       ....       0.041 sec  (  1.7%)
[...]
     15       0.000000   0.000000   0.000000   0.000000   0.000000   0.000000
     16       0.000000   0.000000   0.000000   0.000000   0.000000   0.000000
     17       0.000000   0.000000   0.000000   0.000000   0.000000   0.000000
     18       0.000000   0.000000   0.000000   0.000000   0.000000   0.000000
     19       0.000000   0.000000   0.000000   0.000000   0.000000   0.000000
     20       0.000000   0.000000   0.000000   0.000000   0.000000   0.000000
     21       0.000000   0.000000   0.000000   0.000000   0.000000   0.000000
     22       0.000000   0.000000   0.000000   0.000000   0.000000   0.000000
     23       0.000000   0.000000   0.000000   0.000000   0.000000   0.000000
     24       0.000000   0.000000   0.000000   0.000000   0.000000   0.000000
     25       0.000000   0.000000   0.000000   0.000000   0.000000   0.000000
     26       0.000000   0.000000   0.000000   0.000000   0.000000   0.000000
     27       0.000000   0.000000   0.000000   0.000000   0.000000   0.000000
     28       0.000000   0.000000   0.000000   0.000000   0.000000   0.000000
     29       0.000000   0.000000   0.000000   0.000000   0.000000   0.000000
                  6          7          8          9         10         11    
      0       0.000002   0.000001   0.230231  -0.000004   0.048007  -0.000000
      1       0.000004   0.000003   0.195144   0.000020  -0.257248  -0.000000
      2       0.106866   0.094023  -0.000005   0.014459   0.000004   0.011953
      3      -0.000003  -0.000000  -0.114454  -0.000003   0.037413   0.000007
      4      -0.000001  -0.000001  -0.039034   0.000014  -0.190559   0.000002
      5      -0.147468  -0.088739   0.000005  -0.016927  -0.000006  -0.059100
      6      -0.343174   0.422718   0.238706  -0.083055   0.036393  -0.100942
      7      -0.082174   0.449239   0.475197  -0.012270  -0.355603   0.015819
      8       0.377654  -0.258967  -0.020888   0.078691   0.014762   0.088135
      9       0.343178  -0.422718   0.238708   0.083049   0.036430   0.100939
     10       0.082196  -0.449241   0.475210   0.012322  -0.355598  -0.015842
     11       0.377653  -0.258957   0.020873   0.078692  -0.014724   0.088133
     12      -0.000002  -0.000000  -0.143001   0.000009  -0.105445   0.000000
     13       0.000000   0.000001  -0.038843  -0.000002   0.047600   0.000006
     14      -0.022262  -0.047208   0.000001  -0.139787  -0.000032  -0.184434
     15       0.253285   0.100319  -0.099259  -0.230198   0.032512  -0.335812
     16      -0.010154  -0.079900  -0.176651  -0.132558  -0.275914  -0.165589
     17      -0.343177  -0.156536  -0.005962   0.158369   0.010171   0.206687
     18      -0.253291  -0.100319  -0.099249   0.230197   0.032595   0.335828
     19       0.010142   0.079895  -0.176649   0.132606  -0.275855   0.165604
     20      -0.343177  -0.156538   0.005984   0.158368  -0.010116   0.206682
     21       0.000000  -0.000001  -0.120269   0.000006  -0.120568  -0.000005
     22      -0.000003  -0.000002  -0.286243  -0.000008   0.111171  -0.000005
     23      -0.108039   0.014403   0.000005   0.017952   0.000005   0.086655
     24       0.000002   0.000001   0.092466  -0.000007   0.119739  -0.000002
     25      -0.000001  -0.000001   0.115889  -0.000024   0.263193   0.000002
     26       0.124842   0.056070  -0.000006   0.111709   0.000027   0.001725
     27       0.000002   0.000000   0.030887  -0.000014   0.018776   0.000011
     28      -0.000000   0.000000   0.323018  -0.000020   0.599188  -0.000024
     29       0.201816   0.025808  -0.000005  -0.865668  -0.000184   0.743364
                 12         13         14         15         16         17    
      0      -0.014735  -0.006834   0.000097   0.027251  -0.037991   0.000015
      1       0.067493   0.131161   0.000653   0.183330   0.063983  -0.000018
      2      -0.000002  -0.000002  -0.009441   0.000032   0.000012   0.030344
      3      -0.277038   0.211889  -0.000286  -0.079990   0.045490  -0.000018
      4      -0.144397   0.144240  -0.000438  -0.123386  -0.084457   0.000024
      5      -0.000002   0.000003   0.156751  -0.000568  -0.000032  -0.079175
      6       0.016420  -0.105879   0.164404  -0.178099  -0.046087   0.175746
      7       0.479923  -0.492862  -0.385285  -0.572112   0.100224  -0.358975
      8      -0.039343   0.084318  -0.114226   0.151564   0.000178  -0.090368
      9       0.016428  -0.105884  -0.165670  -0.176898  -0.046249  -0.175720
     10       0.479920  -0.492849   0.381196  -0.574899   0.100561   0.358901
     11       0.039335  -0.084310  -0.115311  -0.150716  -0.000266  -0.090381
     12       0.007909  -0.133529   0.000140   0.038716   0.056547  -0.000015
     13      -0.173517  -0.142858   0.000091   0.023472  -0.211641   0.000052
     14      -0.000009   0.000005  -0.194987   0.000707   0.000034   0.096271
     15      -0.246859   0.167402   0.471336  -0.086074   0.054803  -0.083584
     16      -0.145655   0.209130  -0.107519  -0.260046   0.170601  -0.562733
     17      -0.020306   0.029154  -0.208767   0.001487  -0.006995   0.004073
     18      -0.246828   0.167374  -0.471942  -0.082649   0.054862   0.083552
     19      -0.145641   0.209118   0.105641  -0.260824   0.171123   0.562674
     20       0.020328  -0.029174  -0.208775   0.000036   0.006986   0.004060
     21      -0.022294  -0.200473   0.000190   0.053913   0.091498  -0.000022
     22       0.301247   0.024764   0.000014   0.004334   0.015199  -0.000003
     23       0.000009  -0.000002   0.045780  -0.000166  -0.000005  -0.016827
     24       0.256044   0.139951  -0.000055  -0.015767  -0.114840   0.000029
     25      -0.173695  -0.127976   0.000084   0.024342   0.063791  -0.000016
     26      -0.000003  -0.000002   0.027451  -0.000100  -0.000003  -0.011089
     27       0.162371  -0.001128   0.000119   0.031412  -0.334768   0.000086
     28       0.157217   0.366586  -0.000535  -0.144243   0.842865  -0.000217
     29       0.000056   0.000006   0.071538  -0.000263   0.000028  -0.009657
                 18         19         20         21         22         23    
      0      -0.193078   0.014653  -0.004313  -0.000000  -0.008635   0.062362
      1       0.111807   0.015664  -0.021646  -0.000001  -0.004218  -0.036838
      2       0.000000  -0.000001  -0.000001  -0.093035  -0.000000   0.000000
      3       0.227783  -0.000799   0.022644  -0.000000  -0.079951   0.015035
      4      -0.166922  -0.076340   0.193067   0.000001   0.058304   0.024119
      5      -0.000003   0.000003  -0.000002   0.086727  -0.000000  -0.000000
      6      -0.089754  -0.030415   0.068692  -0.255758   0.022721  -0.534105
      7       0.393671   0.011010  -0.021690   0.406486  -0.024242   0.189001
      8      -0.081440   0.028686  -0.045973   0.085730  -0.018523   0.414968
      9      -0.089766  -0.030410   0.068694   0.255759   0.022721  -0.534104
     10       0.393705   0.011002  -0.021692  -0.406487  -0.024241   0.188990
     11       0.081426  -0.028685   0.045972   0.085740   0.018523  -0.414971
     12      -0.022912   0.021023   0.031274  -0.000001   0.007335   0.002271
     13       0.043700  -0.142631  -0.205965   0.000002  -0.030937  -0.002545
     14       0.000008  -0.000002  -0.000003   0.016113  -0.000000  -0.000000
     15       0.202955   0.095331  -0.233506   0.178597   0.520863   0.023705
     16      -0.426365   0.436621  -0.551273  -0.470128  -0.195749  -0.056225
     17       0.023169  -0.083633   0.210603  -0.027570  -0.428175  -0.004377
     18       0.202968   0.095323  -0.233505  -0.178595   0.520862   0.023705
     19      -0.426308   0.436613  -0.551263   0.470130  -0.195741  -0.056224
     20      -0.023156   0.083618  -0.210585  -0.027580   0.428178   0.004379
     21      -0.032058  -0.053584   0.005389   0.000000  -0.000910  -0.002983
     22      -0.005847   0.019023   0.028391  -0.000000   0.003280  -0.001015
     23      -0.000002  -0.000001   0.000001  -0.002000   0.000000  -0.000000
     24       0.026578   0.003256  -0.026086   0.000000  -0.004997  -0.000114
     25       0.021132   0.119258   0.090564  -0.000001   0.006777  -0.000148
     26      -0.000001   0.000004   0.000003  -0.001996   0.000000   0.000000
     27       0.102363   0.224378   0.075591   0.000000  -0.008153  -0.002832
     28      -0.262681  -0.698532  -0.287658  -0.000000   0.012853   0.007743
     29      -0.000013  -0.000023  -0.000009   0.014498   0.000001   0.000000
                 24         25         26         27         28         29    
      0      -0.004607   0.001081   0.000000   0.057789   0.000000   0.000166
      1       0.008580   0.000883   0.000000  -0.000645   0.000001  -0.000017
      2      -0.000001   0.000000   0.001713  -0.000000   0.079541   0.000000
      3      -0.038207  -0.069449  -0.000000   0.001935   0.000000  -0.000679
      4      -0.019703  -0.003017  -0.000001   0.002456   0.000000   0.000334
      5       0.000002   0.000000  -0.092953  -0.000000   0.002274   0.000000
      6       0.025706  -0.008306  -0.007893  -0.405206  -0.432529  -0.000220
      7       0.037647  -0.002644  -0.007484  -0.012568  -0.028633  -0.000039
      8      -0.022477  -0.009286  -0.008309  -0.577780  -0.555699  -0.001202
      9       0.025707  -0.008306   0.007893  -0.405205   0.432528  -0.000220
     10       0.037643  -0.002644   0.007483  -0.012555   0.028621  -0.000038
     11       0.022475   0.009286  -0.008309   0.577781  -0.555700   0.001202
     12       0.748711  -0.002436  -0.000000  -0.000080   0.000000   0.003343
     13       0.082525   0.001160  -0.000000   0.000352  -0.000000   0.001704
     14       0.000014   0.000000  -0.001141  -0.000000  -0.000214   0.000000
     15      -0.064940   0.414328   0.428402  -0.005700  -0.005455  -0.000041
     16      -0.106660   0.015826   0.021491  -0.001350   0.000820  -0.000334
     17       0.051032   0.570506   0.558112  -0.010464  -0.010060   0.002347
     18      -0.064942   0.414327  -0.428399  -0.005700   0.005455  -0.000041
     19      -0.106655   0.015810  -0.021475  -0.001350  -0.000821  -0.000334
     20      -0.051025  -0.570510   0.558111   0.010464  -0.010060  -0.002347
     21      -0.470591   0.001413   0.000000  -0.000205  -0.000000  -0.001387
     22      -0.050662  -0.000044   0.000000   0.000084   0.000000  -0.000320
     23      -0.000013  -0.000000  -0.000161  -0.000000   0.000100  -0.000000
     24      -0.046682   0.000168  -0.000000  -0.000102  -0.000000   0.059894
     25      -0.019689  -0.000720  -0.000000   0.000107  -0.000000   0.015567
     26      -0.000000  -0.000000   0.000343   0.000000  -0.000002  -0.000000
     27      -0.113478   0.004411   0.000000   0.001564   0.000000  -0.962163
     28       0.386848  -0.004353   0.000000   0.000303   0.000000  -0.265297
     29       0.000020   0.000000  -0.005098   0.000000   0.000118   0.000007


-----------
IR SPECTRUM
-----------

 Mode    freq (cm**-1)   T**2         TX         TY         TZ
-------------------------------------------------------------------
   6:        82.01    8.748328  ( -0.000035   0.000027   2.957757)
   7:       226.91   61.754879  ( -0.000037  -0.000174  -7.858427)
   8:       255.02   28.488537  ( -1.982642   4.955569   0.000018)
   9:       452.82   50.977319  ( -0.000060   0.000442  -7.139840)
  10:       457.39    1.202767  ( -0.416172  -1.014676  -0.000908)
  11:       560.13   30.531169  (  0.000817  -0.000534   5.525502)
  12:       636.54   13.970543  ( -3.148035   2.015048   0.000166)
  13:       817.36   27.550256  ( -1.990485  -4.856771   0.000089)
  14:       900.26    1.078671  (  0.005661  -0.047063  -1.037508)
  15:       900.70  173.774587  (  1.403723 -13.107408   0.003876)
  16:      1117.00   13.385188  (  0.340170  -3.642729   0.000253)
  17:      1124.87    0.239987  ( -0.000474   0.001080   0.489883)
  18:      1153.81    5.546849  (  2.282176  -0.581827   0.000005)
  19:      1240.73  305.474978  (  9.561917 -14.630267  -0.000258)
  20:      1319.56   84.323880  (  1.998888  -8.962607  -0.000165)
  21:      1339.63    1.498301  ( -0.000084   0.000063  -1.224051)
  22:      1383.96    3.718311  (  1.874409   0.452660  -0.000028)
  23:      1603.74   17.686543  ( -4.165583  -0.578328   0.000006)
  24:      1838.04  201.865348  ( 14.177254   0.933179  -0.000022)
  25:      2933.23   28.317201  ( -4.658983   2.571201  -0.000124)
  26:      2979.75   11.146516  ( -0.000194  -0.000140  -3.338640)
  27:      3407.72    1.997112  ( -1.298680  -0.557264   0.000004)
  28:      3476.58    3.523741  (  0.000048  -0.000028  -1.877163)
  29:      3651.56   28.711978  ( -5.358039   0.058237   0.000092)

The first frequency considered to be a vibration is 6
The total number of vibrations considered is 24


--------------------------
THERMOCHEMISTRY AT 298.15K
--------------------------

Temperature         ... 298.15 K
Pressure            ... 1.00 atm
Total Mass          ... 75.07 AMU

Throughout the following assumptions are being made:
  (1) The electronic state is orbitally nondegenerate
  (2) There are no thermally accessible electronically excited states
  (3) Hindered rotations indicated by low frequency modes are not
      treated as such but are treated as vibrations and this may
      cause some error
  (4) All equations used are the standard statistical mechanics
      equations for an ideal gas
  (5) All vibrations are strictly harmonic

freq.      82.01  E(vib)   ...       0.48 
freq.     226.91  E(vib)   ...       0.33 
freq.     255.02  E(vib)   ...       0.30 
freq.     452.82  E(vib)   ...       0.16 
freq.     457.39  E(vib)   ...       0.16 
freq.     560.13  E(vib)   ...       0.12 
freq.     636.54  E(vib)   ...       0.09 
freq.     817.36  E(vib)   ...       0.05 
freq.     900.26  E(vib)   ...       0.03 
freq.     900.70  E(vib)   ...       0.03 
freq.    1117.00  E(vib)   ...       0.01 
freq.    1124.87  E(vib)   ...       0.01 
freq.    1153.81  E(vib)   ...       0.01 
freq.    1240.73  E(vib)   ...       0.01 
freq.    1319.56  E(vib)   ...       0.01 
freq.    1339.63  E(vib)   ...       0.01 
freq.    1383.96  E(vib)   ...       0.00 
freq.    1603.74  E(vib)   ...       0.00 
freq.    1838.04  E(vib)   ...       0.00 
freq.    2933.23  E(vib)   ...       0.00 
freq.    2979.75  E(vib)   ...       0.00 
freq.    3407.72  E(vib)   ...       0.00 
freq.    3476.58  E(vib)   ...       0.00 
freq.    3651.56  E(vib)   ...       0.00 

------------
INNER ENERGY
------------

The inner energy is: U= E(el) + E(ZPE) + E(vib) + E(rot) + E(trans)
    E(el)   - is the total energy from the electronic structure calculation
              = E(kin-el) + E(nuc-el) + E(el-el) + E(nuc-nuc)
    E(ZPE)  - the the zero temperature vibrational energy from the frequency calculation
    E(vib)  - the the finite temperature correction to E(ZPE) due to population
              of excited vibrational states
    E(rot)  - is the rotational thermal energy
    E(trans)- is the translational thermal energy

Summary of contributions to the inner energy U:
Electronic energy                ...   -283.89604502 Eh
Zero point energy                ...      0.07713727 Eh      48.40 kcal/mol
Thermal vibrational correction   ...      0.00290607 Eh       1.82 kcal/mol
Thermal rotational correction    ...      0.00141627 Eh       0.89 kcal/mol
Thermal translational correction ...      0.00141627 Eh       0.89 kcal/mol
-----------------------------------------------------------------------
Total thermal energy                   -283.81316914 Eh


Summary of corrections to the electronic energy:
(perhaps to be used in another calculation)
Total thermal correction                  0.00573861 Eh       3.60 kcal/mol
Non-thermal (ZPE) correction              0.07713727 Eh      48.40 kcal/mol
-----------------------------------------------------------------------
Total correction                          0.08287588 Eh      52.01 kcal/mol


--------
ENTHALPY
--------

The enthalpy is H = U + kB*T
                kB is Boltzmann's constant
Total free energy                 ...   -283.81316914 Eh 
Thermal Enthalpy correction       ...      0.00094421 Eh       0.59 kcal/mol
-----------------------------------------------------------------------
Total Enthalpy                    ...   -283.81222493 Eh


Vibrational entropy computed according to the QRRHO of S. Grimme
Chem.Eur.J. 2012 18 9955

check  

-------
ENTROPY
-------

The entropy contributions are T*S = T*(S(el)+S(vib)+S(rot)+S(trans)
     S(el)   - electronic entropy
     S(vib)  - vibrational entropy
     S(rot)  - rotational entropy
     S(trans)- translational entropy
The entropies will be listed as mutliplied by the temperature to get
units of energy

Electronic entropy                ...      0.00000000 Eh      0.00 kcal/mol
Vibrational entropy               ...      0.00481642 Eh      3.02 kcal/mol
Rotational entropy                ...      0.01106213 Eh      6.94 kcal/mol
Translational entropy             ...      0.01846507 Eh     11.59 kcal/mol
-----------------------------------------------------------------------
Final entropy term                ...      0.03434362 Eh     21.55 kcal/mol


CAUTION: The rotational entropy is not quite correctly treated here
         because it includes a symmetry number that is not yet correctly
         implemented in ORCA!
For a nonlinear molecule the correct rotational entropy is:
    S(rot) = R*(ln(qrot/sn)+1.5)
    R    = 8.31441 J/mol/K = 1.987191683e-3 kcal/mol/K
    qrot = 82020.4895949
    sn is the rotational symmetry number. We have assumed 3 here
       if it is different for your molecule then you should correct
       the printed rotational entropy by manually evaluating the equation
       as given above

For convenience we print out the resulting values for sn=1 - 12:
 sn= 1  qrot/sn=   82020.4896 T*S(rot)=     7.59 kcal/mol T*S(tot)=    22.20 kcal/mol
 sn= 2  qrot/sn=   41010.2448 T*S(rot)=     7.18 kcal/mol T*S(tot)=    21.79 kcal/mol
 sn= 3  qrot/sn=   27340.1632 T*S(rot)=     6.94 kcal/mol T*S(tot)=    21.55 kcal/mol
 sn= 4  qrot/sn=   20505.1224 T*S(rot)=     6.77 kcal/mol T*S(tot)=    21.38 kcal/mol
 sn= 5  qrot/sn=   16404.0979 T*S(rot)=     6.64 kcal/mol T*S(tot)=    21.25 kcal/mol
 sn= 6  qrot/sn=   13670.0816 T*S(rot)=     6.53 kcal/mol T*S(tot)=    21.14 kcal/mol
 sn= 7  qrot/sn=   11717.2128 T*S(rot)=     6.44 kcal/mol T*S(tot)=    21.05 kcal/mol
 sn= 8  qrot/sn=   10252.5612 T*S(rot)=     6.36 kcal/mol T*S(tot)=    20.97 kcal/mol
 sn= 9  qrot/sn=    9113.3877 T*S(rot)=     6.29 kcal/mol T*S(tot)=    20.90 kcal/mol
 sn=10  qrot/sn=    8202.0490 T*S(rot)=     6.23 kcal/mol T*S(tot)=    20.84 kcal/mol
 sn=11  qrot/sn=    7456.4081 T*S(rot)=     6.17 kcal/mol T*S(tot)=    20.78 kcal/mol
 sn=12  qrot/sn=    6835.0408 T*S(rot)=     6.12 kcal/mol T*S(tot)=    20.73 kcal/mol


-------------------
GIBBS FREE ENTHALPY
-------------------

The Gibbs free enthalpy is G = H - T*S

Total enthalpy                    ...   -283.81222493 Eh 
Total entropy correction          ...     -0.03434362 Eh    -21.55 kcal/mol
-----------------------------------------------------------------------
Final Gibbs free enthalpy         ...   -283.84656855 Eh

For completeness - the Gibbs free enthalpy minus the electronic energy
G-E(el)                           ...      0.04947647 Eh     31.05 kcal/mol


Timings for individual modules:

Sum of individual times         ...      130.194 sec (=   2.170 min)
GTO integral calculation        ...        1.723 sec (=   0.029 min)   1.3 %
SCF iterations                  ...       43.254 sec (=   0.721 min)  33.2 %
SCF Gradient evaluation         ...       21.053 sec (=   0.351 min)  16.2 %
Geometry relaxation             ...        0.441 sec (=   0.007 min)   0.3 %
Analytical frequency calculation...       63.724 sec (=   1.062 min)  48.9 %
                             ****ORCA TERMINATED NORMALLY****
TOTAL RUN TIME: 0 days 0 hours 2 minutes 10 seconds 765 msec
